   61
Geometry Step: 0
    H     11.58240908      8.90630932      2.86193171      1.05576700
    H      7.71850805      8.91793037      2.86125925      1.05701555
    H     15.44631011      8.91793037      2.86125925      1.05621760
    H      9.66052267      5.57750442      2.86193170      1.05777235
    H      5.79120454      5.56194977      2.86140756      1.05382087
    H     13.50429548      5.57750442      2.86193170      1.05535630
    H      7.71239285      2.23435394      2.86140755      1.05584068
    H      3.87001622      2.23435394      2.86140755      1.05425182
    H     11.58240908      2.22545752      2.86125925      1.05885815
   Si     11.58240908      8.91614266      4.36424935      3.90681769
   Si      7.72160605      8.91614266      4.36424935      3.90051862
   Si     15.44321210      8.91614266      4.36424935      3.89802721
   Si      9.65200756      5.57258916      4.36424935      3.90493043
   Si      5.79120454      5.57258916      4.36424935      3.90687414
   Si     13.51281059      5.57258916      4.36424935      3.90202574
   Si      7.72160605      2.22903567      4.36424935      3.91032229
   Si      3.86080303      2.22903567      4.36424935      3.90929775
   Si     11.58240908      2.22903567      4.36424935      3.89767179
   Si      9.65200756      7.80162483      5.15233247      4.03291004
   Si      5.79120454      7.80162483      5.15233247      4.03275353
   Si     13.51281059      7.80162483      5.15233247      4.03674453
   Si      7.72160605      4.45807133      5.15233247      4.02477877
   Si      3.86080303      4.45807133      5.15233247      4.03226973
   Si     11.58240908      4.45807133      5.15233247      4.02913547
   Si      5.79120454      1.11451783      5.15233247      4.02453842
   Si      1.93040151      1.11451783      5.15233247      4.02956849
   Si      9.65200756      1.11451783      5.15233247      4.02301684
   Si      9.64534431      7.81128642      7.55755771      4.01191217
   Si      5.82125382      7.84962453      7.58889625      3.97253683
   Si     13.52817765      7.83886156      7.55421861      4.00419943
   Si      7.91729905      4.42376986      7.50935704      4.00934523
   Si      3.95988232      4.47408448      7.46571500      4.00811321
   Si     11.65642676      4.47964756      7.51415455      3.99996487
   Si      5.84939380      1.09156178      7.45751075      4.02810422
   Si      1.92898953      1.11798494      7.56976149      3.95753286
   Si      9.77069456      1.15400561      7.57623727      3.96517086
   Si     11.59789046      6.71037238      8.31235328      3.96519451
   Si      7.75061056      6.61418884      8.37788843      4.00573812
   Si      3.88090021      6.67548198      8.29301715      4.01050119
   Si      9.85339288      3.37108265      8.56723272      4.12654346
   Si      5.92845409      3.33501804      8.13301452      3.93029158
   Si      2.05197861      3.38424692      8.28048363      4.01806066
   Si      7.79207879      0.07958758      8.39324113      4.00579287
   Si      3.93582222      0.04755593      8.34879080      4.01037221
   Si      0.04220616      0.01713817      8.56785970      4.19053763
   Si     11.90527594      6.73307682     10.64384341      4.06709210
   Si      8.33414118      6.30961738     10.71074774      3.94869713
   Si      3.67600232      6.10100708     10.62128470      3.99659162
   Si      9.41022345      4.49138472     11.98123916      3.98335305
   Si      6.27201400      3.14718814     10.39267103      3.97902404
   Si      2.44236934      3.86142150     10.63399667      3.97958656
   Si      7.22296391      0.43584728     10.76863719      3.95383391
   Si      4.75692243      0.14567045     10.67269323      3.93851434
   Si      9.92321444      7.96204619     11.55827341      4.03498201
   Si     13.88535221      8.14875063     10.80036351      3.93130141
   Si      6.00057190      5.51872285     10.96954838      4.02860787
   Si      7.88446802      2.51664627     12.05401246      4.03069100
   Si      4.18975568      2.37966012     11.61375566      4.06898390
   Si     11.52723618      4.27208072     10.79399177      3.93018372
   Si      5.82492951      3.78538047     12.77991476      4.00097958
   Si     10.71809549      6.28111994     12.99088170      4.00056408
