  577
Geometry Step: 0
    H     46.31899813     28.96897693      2.86202716      1.05373255
    H     42.46241127     28.98763641      2.86176759      1.05433933
    H     38.60544345     28.96889250      2.86230495      1.05233310
    H     34.74722731     28.98682408      2.86189679      1.05381379
    H     30.88901108     28.96889252      2.86230605      1.05233293
    H     27.03204314     28.98763643      2.86176867      1.05433920
    H     23.17545626     28.96897708      2.86202770      1.05373251
    H     19.31311466     28.97220917      2.86029994      1.06125750
    H     50.18133974     28.97220919      2.86029977      1.06125750
    H     44.39878071     25.63364700      2.86216482      1.05301430
    H     40.53344430     25.63553550      2.86228595      1.05242610
    H     36.68122303     25.63725635      2.86225820      1.05239707
    H     32.81323157     25.63725634      2.86225829      1.05239705
    H     28.96101021     25.63553553      2.86228569      1.05242612
    H     25.09567369     25.63364704      2.86216389      1.05301445
    H     21.24708451     25.62893925      2.86202757      1.05373254
    H     17.37361358     25.59753420      2.86126482      1.05584145
    H     48.24736981     25.62893924      2.86202842      1.05373238
    H     42.46774800     22.28522318      2.86228824      1.05242584
    H     38.60725796     22.28990972      2.86151643      1.05488453
    H     34.74722731     22.28612718      2.86231082      1.05222679
    H     30.88719665     22.28990974      2.86151489      1.05488472
    H     27.02670648     22.28522316      2.86228557      1.05242615
    H     23.15921845     22.27970734      2.86176838      1.05433927
    H     19.30726065     22.27258556      2.86250909      1.05213993
    H     15.43996648     22.27258555      2.86251012      1.05213978
    H     46.33523586     22.27970729      2.86177088      1.05433889
    H     40.54312769     18.94824118      2.86226211      1.05239662
    H     36.67396692     18.94891631      2.86231247      1.05222658
    H     32.82048765     18.94891628      2.86231099      1.05222677
    H     28.95132681     18.94824113      2.86225838      1.05239705
    H     25.10393508     18.94884695      2.86230587      1.05233298
    H     21.23056134     18.94802815      2.86256230      1.05140880
    H     17.37361351     18.94023488      2.86161062      1.05400958
    H     13.51666579     18.94802815      2.86256500      1.05140843
    H     44.39051944     18.94884694      2.86231001      1.05233249
    H     38.60913197     15.59846240      2.86226228      1.05239662
    H     34.74722731     15.60414059      2.86151685      1.05488449
    H     30.88532255     15.59846233      2.86225886      1.05239697
    H     27.01751413     15.59856818      2.86189721      1.05381373
    H     23.16755404     15.59510422      2.86258081      1.05134497
    H     19.30837633     15.60317099      2.86250704      1.05165294
    H     15.43885085     15.60317101      2.86250868      1.05165269
    H     11.57967319     15.59510431      2.86258487      1.05134444
    H     42.47694026     15.59856833      2.86190207      1.05381312
    H     36.68153096     12.26320128      2.86228872      1.05242580
    H     32.81292353     12.26320127      2.86228680      1.05242598
    H     28.96215128     12.26622056      2.86230588      1.05233296
    H     25.08953434     12.26613672      2.86258039      1.05134499
    H     21.23499766     12.26003070      2.86159737      1.05412076
    H     17.37361360     12.25549116      2.86242948      1.05167378
    H     13.51222953     12.26003076      2.86160037      1.05412036
    H      9.65769285     12.26613675      2.86258517      1.05134440
    H     40.53230327     12.26622057      2.86231038      1.05233244
    H     34.74722721      8.91666606      2.86216545      1.05301422
    H     30.87440258      8.91661665      2.86176843      1.05433921
    H     27.02475532      8.91218991      2.86256120      1.05140890
    H     23.16693140      8.91995759      2.86250545      1.05165307
    H     19.30037445      8.91824370      2.86242826      1.05167392
    H     15.44685282      8.91824373      2.86242969      1.05167375
    H     11.58029582      8.91995762      2.86250927      1.05165260
    H      7.72247190      8.91219001      2.86256565      1.05140834
    H     38.62005184      8.91661674      2.86177137      1.05433883
    H     32.81885563      5.58604423      2.86202761      1.05373249
    H     28.94225616      5.58428414      2.86250758      1.05214008
    H     25.08953224      5.57587188      2.86160769      1.05400992
    H     21.23216868      5.56885023      2.86250514      1.05165310
    H     17.37361364      5.57191744      2.86159734      1.05412074
    H     13.51505857      5.56885024      2.86250759      1.05165281
    H      9.65769489      5.57587193      2.86161136      1.05400944
    H      5.80497104      5.58428415      2.86251065      1.05213969
    H     36.67559885      5.58604421      2.86202881      1.05373234
    H     30.85492237      2.24722252      2.86126359      1.05584160
    H     27.00860902      2.23510900      2.86250722      1.05214012
    H     23.16780757      2.23176051      2.86256049      1.05140897
    H     19.29559400      2.23073771      2.86257981      1.05134505
    H     15.45163331      2.23073770      2.86258088      1.05134494
    H     11.57941968      2.23176054      2.86256283      1.05140870
    H      7.73861815      2.23510904      2.86250955      1.05213986
    H      3.89230484      2.24722255      2.86126507      1.05584142
    H     34.74722719      2.23954231      2.86029993      1.06125748
   Si     46.32963630     28.97746366      4.36424935      3.90879938
   Si     42.46883328     28.97746366      4.36424935      3.90957137
   Si     38.60803025     28.97746366      4.36424935      3.90832358
   Si     34.74722723     28.97746366      4.36424935      3.90937155
   Si     30.88642420     28.97746366      4.36424935      3.90832380
   Si     27.02562118     28.97746366      4.36424935      3.90957160
   Si     23.16481815     28.97746366      4.36424935      3.90879934
   Si     19.30401513     28.97746366      4.36424935      3.89915383
   Si     50.19043933     28.97746366      4.36424935      3.89915391
   Si     44.39923479     25.63391016      4.36424935      3.90819298
   Si     40.53843177     25.63391016      4.36424935      3.90851553
   Si     36.67762874     25.63391016      4.36424935      3.90876985
   Si     32.81682571     25.63391016      4.36424935      3.90877003
   Si     28.95602269     25.63391016      4.36424935      3.90851569
   Si     25.09521966     25.63391016      4.36424935      3.90819276
   Si     21.23441664     25.63391016      4.36424935      3.90879926
   Si     17.37361361     25.63391016      4.36424935      3.91749019
   Si     48.26003782     25.63391016      4.36424935      3.90879935
   Si     42.46883328     22.29035666      4.36424935      3.90851575
   Si     38.60803025     22.29035666      4.36424935      3.90828196
   Si     34.74722723     22.29035666      4.36424935      3.90830692
   Si     30.88642420     22.29035666      4.36424935      3.90828217
   Si     27.02562118     22.29035666      4.36424935      3.90851560
   Si     23.16481815     22.29035666      4.36424935      3.90957148
   Si     19.30401513     22.29035666      4.36424935      3.90889393
   Si     15.44321210     22.29035666      4.36424935      3.90889390
   Si     46.32963630     22.29035666      4.36424935      3.90957155
   Si     40.53843177     18.94680316      4.36424935      3.90877022
   Si     36.67762874     18.94680316      4.36424935      3.90830697
   Si     32.81682571     18.94680316      4.36424935      3.90830697
   Si     28.95602269     18.94680316      4.36424935      3.90876996
   Si     25.09521966     18.94680316      4.36424935      3.90832366
   Si     21.23441664     18.94680316      4.36424935      3.90956301
   Si     17.37361361     18.94680316      4.36424935      3.91043129
   Si     13.51281059     18.94680316      4.36424935      3.90956331
   Si     44.39923479     18.94680316      4.36424935      3.90832396
   Si     38.60803025     15.60324966      4.36424935      3.90877022
   Si     34.74722723     15.60324966      4.36424935      3.90828203
   Si     30.88642420     15.60324966      4.36424935      3.90876994
   Si     27.02562118     15.60324966      4.36424935      3.90937152
   Si     23.16481815     15.60324966      4.36424935      3.90948341
   Si     19.30401513     15.60324966      4.36424935      3.90828008
   Si     15.44321210     15.60324966      4.36424935      3.90828024
   Si     11.58240908     15.60324966      4.36424935      3.90948382
   Si     42.46883328     15.60324966      4.36424935      3.90937175
   Si     36.67762874     12.25969616      4.36424935      3.90851574
   Si     32.81682571     12.25969616      4.36424935      3.90851563
   Si     28.95602269     12.25969616      4.36424935      3.90832362
   Si     25.09521966     12.25969616      4.36424935      3.90948346
   Si     21.23441664     12.25969616      4.36424935      3.90892454
   Si     17.37361361     12.25969616      4.36424935      3.90939791
   Si     13.51281059     12.25969616      4.36424935      3.90892479
   Si      9.65200756     12.25969616      4.36424935      3.90948386
   Si     40.53843177     12.25969616      4.36424935      3.90832395
   Si     34.74722723      8.91614266      4.36424935      3.90819300
   Si     30.88642420      8.91614266      4.36424935      3.90957136
   Si     27.02562118      8.91614266      4.36424935      3.90956294
   Si     23.16481815      8.91614266      4.36424935      3.90827993
   Si     19.30401513      8.91614266      4.36424935      3.90939779
   Si     15.44321210      8.91614266      4.36424935      3.90939795
   Si     11.58240908      8.91614266      4.36424935      3.90828037
   Si      7.72160605      8.91614266      4.36424935      3.90956336
   Si     38.60803025      8.91614266      4.36424935      3.90957161
   Si     32.81682571      5.57258916      4.36424935      3.90879934
   Si     28.95602269      5.57258916      4.36424935      3.90889375
   Si     25.09521966      5.57258916      4.36424935      3.91043116
   Si     21.23441664      5.57258916      4.36424935      3.90827988
   Si     17.37361361      5.57258916      4.36424935      3.90892461
   Si     13.51281059      5.57258916      4.36424935      3.90828020
   Si      9.65200756      5.57258916      4.36424935      3.91043145
   Si      5.79120454      5.57258916      4.36424935      3.90889397
   Si     36.67762874      5.57258916      4.36424935      3.90879940
   Si     30.88642420      2.22903567      4.36424935      3.91749018
   Si     27.02562118      2.22903567      4.36424935      3.90889377
   Si     23.16481815      2.22903567      4.36424935      3.90956293
   Si     19.30401513      2.22903567      4.36424935      3.90948342
   Si     15.44321210      2.22903567      4.36424935      3.90948352
   Si     11.58240908      2.22903567      4.36424935      3.90956314
   Si      7.72160605      2.22903567      4.36424935      3.90889401
   Si      3.86080303      2.22903567      4.36424935      3.91749024
   Si     34.74722723      2.22903567      4.36424935      3.89915388
   Si     44.39923479     27.86294582      5.15233247      4.03600972
   Si     40.53843177     27.86294582      5.15233247      4.03691219
   Si     36.67762874     27.86294582      5.15233247      4.03691371
   Si     32.81682571     27.86294582      5.15233247      4.03691345
   Si     28.95602269     27.86294582      5.15233247      4.03691188
   Si     25.09521966     27.86294582      5.15233247      4.03600968
   Si     21.23441664     27.86294582      5.15233247      4.03673339
   Si     17.37361361     27.86294582      5.15233247      4.01845519
   Si     48.26003782     27.86294582      5.15233247      4.03673352
   Si     42.46883328     24.51939233      5.15233247      4.02309006
   Si     38.60803025     24.51939233      5.15233247      4.03605040
   Si     34.74722723     24.51939233      5.15233247      4.02346313
   Si     30.88642420     24.51939233      5.15233247      4.03605028
   Si     27.02562118     24.51939233      5.15233247      4.02308994
   Si     23.16481815     24.51939233      5.15233247      4.03600960
   Si     19.30401513     24.51939233      5.15233247      4.03570395
   Si     15.44321210     24.51939233      5.15233247      4.03570405
   Si     46.32963630     24.51939233      5.15233247      4.03600993
   Si     40.53843177     21.17583883      5.15233247      4.03604964
   Si     36.67762874     21.17583883      5.15233247      4.03687559
   Si     32.81682571     21.17583883      5.15233247      4.03687576
   Si     28.95602269     21.17583883      5.15233247      4.03605054
   Si     25.09521966     21.17583883      5.15233247      4.03691207
   Si     21.23441664     21.17583883      5.15233247      4.02098141
   Si     17.37361361     21.17583883      5.15233247      4.03632401
   Si     13.51281059     21.17583883      5.15233247      4.02098134
   Si     44.39923479     21.17583883      5.15233247      4.03691174
   Si     38.60803025     17.83228533      5.15233247      4.02346301
   Si     34.74722723     17.83228533      5.15233247      4.03687572
   Si     30.88642420     17.83228533      5.15233247      4.02346328
   Si     27.02562118     17.83228533      5.15233247      4.03691369
   Si     23.16481815     17.83228533      5.15233247      4.04022995
   Si     19.30401513     17.83228533      5.15233247      4.03648269
   Si     15.44321210     17.83228533      5.15233247      4.03648245
   Si     11.58240908     17.83228533      5.15233247      4.04023022
   Si     42.46883328     17.83228533      5.15233247      4.03691330
   Si     36.67762874     14.48873183      5.15233247      4.03604993
   Si     32.81682571     14.48873183      5.15233247      4.03605055
   Si     28.95602269     14.48873183      5.15233247      4.03691378
   Si     25.09521966     14.48873183      5.15233247      4.02139728
   Si     21.23441664     14.48873183      5.15233247      4.03717414
   Si     17.37361361     14.48873183      5.15233247      4.02047709
   Si     13.51281059     14.48873183      5.15233247      4.03717398
   Si      9.65200756     14.48873183      5.15233247      4.02139718
   Si     40.53843177     14.48873183      5.15233247      4.03691345
   Si     34.74722723     11.14517833      5.15233247      4.02309019
   Si     30.88642420     11.14517833      5.15233247      4.03691232
   Si     27.02562118     11.14517833      5.15233247      4.04023011
   Si     23.16481815     11.14517833      5.15233247      4.03717400
   Si     19.30401513     11.14517833      5.15233247      4.03748132
   Si     15.44321210     11.14517833      5.15233247      4.03748136
   Si     11.58240908     11.14517833      5.15233247      4.03717404
   Si      7.72160605     11.14517833      5.15233247      4.04023024
   Si     38.60803025     11.14517833      5.15233247      4.03691193
   Si     32.81682571      7.80162483      5.15233247      4.03600980
   Si     28.95602269      7.80162483      5.15233247      4.02098142
   Si     25.09521966      7.80162483      5.15233247      4.03648256
   Si     21.23441664      7.80162483      5.15233247      4.02047697
   Si     17.37361361      7.80162483      5.15233247      4.03748132
   Si     13.51281059      7.80162483      5.15233247      4.02047705
   Si      9.65200756      7.80162483      5.15233247      4.03648251
   Si      5.79120454      7.80162483      5.15233247      4.02098138
   Si     36.67762874      7.80162483      5.15233247      4.03601002
   Si     30.88642420      4.45807133      5.15233247      4.03570414
   Si     27.02562118      4.45807133      5.15233247      4.03632426
   Si     23.16481815      4.45807133      5.15233247      4.03648274
   Si     19.30401513      4.45807133      5.15233247      4.03717413
   Si     15.44321210      4.45807133      5.15233247      4.03717398
   Si     11.58240908      4.45807133      5.15233247      4.03648254
   Si      7.72160605      4.45807133      5.15233247      4.03632395
   Si      3.86080303      4.45807133      5.15233247      4.03570415
   Si     34.74722723      4.45807133      5.15233247      4.03673351
   Si     28.95602269      1.11451783      5.15233247      4.03570412
   Si     25.09521966      1.11451783      5.15233247      4.02098137
   Si     21.23441664      1.11451783      5.15233247      4.04023016
   Si     17.37361361      1.11451783      5.15233247      4.02139715
   Si     13.51281059      1.11451783      5.15233247      4.04022981
   Si      9.65200756      1.11451783      5.15233247      4.02098128
   Si      5.79120454      1.11451783      5.15233247      4.03570402
   Si      1.93040151      1.11451783      5.15233247      4.01845532
   Si     32.81682571      1.11451783      5.15233247      4.01845539
   Si     44.39923479     27.86294582      7.51658182      4.00797985
   Si     40.53843177     27.86294582      7.51658182      4.01324461
   Si     36.67762874     27.86294582      7.51658182      4.01241365
   Si     32.81682571     27.86294582      7.51658182      4.01241412
   Si     28.95602269     27.86294582      7.51658182      4.01324516
   Si     25.09521966     27.86294582      7.51658182      4.00797959
   Si     21.23441664     27.86294582      7.51658182      4.00322250
   Si     17.37361361     27.86294582      7.51658182      3.98635311
   Si     48.26003782     27.86294582      7.51658182      4.00322294
   Si     42.46883328     24.51939233      7.51658182      4.02154645
   Si     38.60803025     24.51939233      7.51658182      4.01214753
   Si     34.74722723     24.51939233      7.51658182      4.02266480
   Si     30.88642420     24.51939233      7.51658182      4.01214837
   Si     27.02562118     24.51939233      7.51658182      4.02154703
   Si     23.16481815     24.51939233      7.51658182      4.00797942
   Si     19.30401513     24.51939233      7.51658182      4.03502813
   Si     15.44321210     24.51939233      7.51658182      4.03502760
   Si     46.32963630     24.51939233      7.51658182      4.00797907
   Si     40.53843177     21.17583883      7.51658182      4.01214896
   Si     36.67762874     21.17583883      7.51658182      4.01613619
   Si     32.81682571     21.17583883      7.51658182      4.01613643
   Si     28.95602269     21.17583883      7.51658182      4.01214827
   Si     25.09521966     21.17583883      7.51658182      4.01324506
   Si     21.23441664     21.17583883      7.51658182      3.99124226
   Si     17.37361361     21.17583883      7.51658182      4.00860070
   Si     13.51281059     21.17583883      7.51658182      3.99124239
   Si     44.39923479     21.17583883      7.51658182      4.01324548
   Si     38.60803025     17.83228533      7.51658182      4.02266354
   Si     34.74722723     17.83228533      7.51658182      4.01613590
   Si     30.88642420     17.83228533      7.51658182      4.02266469
   Si     27.02562118     17.83228533      7.51658182      4.01241382
   Si     23.16481815     17.83228533      7.51658182      4.03158861
   Si     19.30401513     17.83228533      7.51658182      4.01269164
   Si     15.44321210     17.83228533      7.51658182      4.01269282
   Si     11.58240908     17.83228533      7.51658182      4.03158821
   Si     42.46883328     17.83228533      7.51658182      4.01241401
   Si     36.67762874     14.48873183      7.51658182      4.01214867
   Si     32.81682571     14.48873183      7.51658182      4.01214792
   Si     28.95602269     14.48873183      7.51658182      4.01241398
   Si     25.09521966     14.48873183      7.51658182      3.99223752
   Si     21.23441664     14.48873183      7.51658182      4.01127324
   Si     17.37361361     14.48873183      7.51658182      4.02726354
   Si     13.51281059     14.48873183      7.51658182      4.01127390
   Si      9.65200756     14.48873183      7.51658182      3.99223770
   Si     40.53843177     14.48873183      7.51658182      4.01241414
   Si     34.74722723     11.14517833      7.51658182      4.02154615
   Si     30.88642420     11.14517833      7.51658182      4.01324470
   Si     27.02562118     11.14517833      7.51658182      4.03158846
   Si     23.16481815     11.14517833      7.51658182      4.01127330
   Si     19.30401513     11.14517833      7.51658182      4.01499530
   Si     15.44321210     11.14517833      7.51658182      4.01499464
   Si     11.58240908     11.14517833      7.51658182      4.01127431
   Si      7.72160605     11.14517833      7.51658182      4.03158837
   Si     38.60803025     11.14517833      7.51658182      4.01324526
   Si     32.81682571      7.80162483      7.51658182      4.00797979
   Si     28.95602269      7.80162483      7.51658182      3.99124189
   Si     25.09521966      7.80162483      7.51658182      4.01269192
   Si     21.23441664      7.80162483      7.51658182      4.02726346
   Si     17.37361361      7.80162483      7.51658182      4.01499521
   Si     13.51281059      7.80162483      7.51658182      4.02726362
   Si      9.65200756      7.80162483      7.51658182      4.01269300
   Si      5.79120454      7.80162483      7.51658182      3.99124237
   Si     36.67762874      7.80162483      7.51658182      4.00797931
   Si     30.88642420      4.45807133      7.51658182      4.03502774
   Si     27.02562118      4.45807133      7.51658182      4.00860104
   Si     23.16481815      4.45807133      7.51658182      4.01269201
   Si     19.30401513      4.45807133      7.51658182      4.01127327
   Si     15.44321210      4.45807133      7.51658182      4.01127385
   Si     11.58240908      4.45807133      7.51658182      4.01269213
   Si      7.72160605      4.45807133      7.51658182      4.00860099
   Si      3.86080303      4.45807133      7.51658182      4.03502776
   Si     34.74722723      4.45807133      7.51658182      4.00322274
   Si     28.95602269      1.11451783      7.51658182      4.03502777
   Si     25.09521966      1.11451783      7.51658182      3.99124252
   Si     21.23441664      1.11451783      7.51658182      4.03158857
   Si     17.37361361      1.11451783      7.51658182      3.99223794
   Si     13.51281059      1.11451783      7.51658182      4.03158859
   Si      9.65200756      1.11451783      7.51658182      3.99124267
   Si      5.79120454      1.11451783      7.51658182      4.03502817
   Si      1.93040151      1.11451783      7.51658182      3.98635265
   Si     32.81682571      1.11451783      7.51658182      3.98635284
   Si     46.32931273     26.74824149      8.06927092      3.90855715
   Si     42.47223449     26.75019578      8.39484382      4.00470497
   Si     38.60808195     26.74833531      8.04564128      3.88245774
   Si     34.74722658     26.74995394      8.39141066      4.00408101
   Si     30.88637228     26.74833583      8.04564811      3.88246061
   Si     27.02222061     26.75019766      8.39484595      4.00470531
   Si     23.16514183     26.74824259      8.06927229      3.90855749
   Si     19.30352505     26.72751385      8.34582063      3.99054856
   Si     15.44370191     26.72751293      8.34582081      3.99054873
   Si     44.40246611     23.40693528      8.39484382      4.00470576
   Si     40.55245087     23.41296724      8.39716013      4.00937507
   Si     36.66703794     23.41370382      8.39623130      4.00914225
   Si     32.82741663     23.41370479      8.39623224      4.00914286
   Si     28.94200478     23.41297005      8.39716176      4.00937529
   Si     25.09198851     23.40693788      8.39484492      4.00470489
   Si     21.21691466     23.43522275      8.37897683      4.01868620
   Si     17.37361322     23.40726125      8.05323055      3.88656739
   Si     13.53031219     23.43522251      8.37897526      4.01868615
   Si     42.46877784     20.06141337      8.04565523      3.88245846
   Si     38.61038235     20.04773513      8.39623185      4.00914351
   Si     34.74722782     20.06132194      8.02384505      3.86548777
   Si     30.88407439     20.04773603      8.39623179      4.00914269
   Si     27.02567637     20.06141398      8.04564639      3.88246042
   Si     23.17825289     20.03677485      8.36719411      4.01410307
   Si     19.31598457     20.07071503      8.39437646      4.01152499
   Si     15.43124038     20.07071433      8.39437613      4.01152570
   Si     11.56897175     20.03677183      8.36719314      4.01410424
   Si     40.53975345     16.71700651      8.39141008      4.00408239
   Si     36.69057190     16.72252636      8.39623082      4.00914329
   Si     32.80388540     16.72252713      8.39623045      4.00914215
   Si     28.95470283     16.71700715      8.39140927      4.00408079
   Si     25.08003450     16.74389048      8.36875294      4.01548668
   Si     21.23557095     16.71847515      8.03518097      3.87757076
   Si     17.37361188     16.71673229      8.39484444      4.00706853
   Si     13.51165522     16.71847475      8.03518667      3.87757155
   Si      9.66719342     16.74389329      8.36875162      4.01548732
   Si     38.60792361     13.37421788      8.04565475      3.88245894
   Si     34.74722929     13.35802905      8.39715893      4.00937486
   Si     30.88653174     13.37421763      8.04564350      3.88245774
   Si     27.04065057     13.34800499      8.36875297      4.01548651
   Si     23.17911655     13.38247120      8.39121256      4.01074494
   Si     19.30072193     13.37773424      8.39390752      4.00793751
   Si     15.44650258     13.37773467      8.39390738      4.00793802
   Si     11.56810907     13.38247150      8.39121223      4.01074643
   Si      7.70657486     13.34800205      8.36875174      4.01548727
   Si     36.67746093     10.02683459      8.39484293      4.00470564
   Si     32.81699647     10.02683409      8.39484257      4.00470498
   Si     28.94148165     10.05457150      8.36719272      4.01410309
   Si     25.09640847     10.03130953      8.03517864      3.87756900
   Si     21.23581693     10.02605241      8.39390839      4.00793748
   Si     17.37361261     10.03066253      8.01651958      3.86633988
   Si     13.51140794     10.02605273      8.39390829      4.00793843
   Si      9.65081864     10.03130927      8.03518949      3.87757327
   Si      5.80574813     10.05457469      8.36719264      4.01410437
   Si     34.74722800      6.68748293      8.06927210      3.90855681
   Si     30.90395508      6.65677974      8.37897582      4.01868582
   Si     27.03974065      6.69277982      8.39437659      4.01152470
   Si     23.16391959      6.68762799      8.39484451      4.00706757
   Si     19.30870739      6.68820148      8.39390796      4.00793732
   Si     15.43851787      6.68820131      8.39390829      4.00793785
   Si     11.58330599      6.68762836      8.39484534      4.00706941
   Si      7.70748678      6.69278068      8.39437713      4.01152633
   Si      3.84327304      6.65677875      8.37897499      4.01868618
   Si     32.79846818      3.35358853      8.34582063      3.99054850
   Si     28.95808937      3.34236195      8.05322664      3.88656773
   Si     25.09736845      3.32849213      8.39437741      4.01152493
   Si     21.23445024      3.34220189      8.03517473      3.87756976
   Si     17.37361259      3.32704459      8.39121405      4.01074504
   Si     13.51277582      3.34220232      8.03518237      3.87757239
   Si      9.64985843      3.32849302      8.39437854      4.01152577
   Si      5.78913887      3.34236289      8.05323204      3.88656845
   Si      1.94876104      3.35358937      8.34582069      3.99054914
   Si     30.86855661      0.01088314      8.34582143      3.99054833
   Si     27.06065219     -0.00001581      8.37897706      4.01868589
   Si     23.13684271      0.00063994      8.36719395      4.01410293
   Si     19.33422778      0.00009127      8.36875380      4.01548630
   Si     15.41299714      0.00009141      8.36875470      4.01548684
   Si     11.61038590      0.00064064      8.36719552      4.01410344
   Si      7.68657433     -0.00001433      8.37897771      4.01868651
   Si      3.87867159      0.01088434      8.34582136      3.99054885
   Si      0.00000064      0.00000179      8.57283385      4.29827548
   Si     46.29274165     26.72712624     10.34405519      4.04606367
   Si     42.50186190     26.74657145     10.83535833      3.90990488
   Si     38.61714076     26.69759982     10.30940660      4.03930826
   Si     34.74722733     26.74866107     10.82958576      3.90993412
   Si     30.87731571     26.69760123     10.30941200      4.03930735
   Si     26.99259297     26.74657450     10.83536224      3.90990639
   Si     23.20171161     26.72712809     10.34405642      4.04606465
   Si     19.62946933     26.20347035     10.67055026      3.93236073
   Si     15.11775535     26.20346818     10.67054921      3.93236085
   Si     44.41414030     23.43440338     10.83535831      3.90990483
   Si     40.66943664     23.48050648     10.83910891      3.94419326
   Si     36.58695165     23.47044724     10.83852638      3.94390785
   Si     32.90750641     23.47044965     10.83852832      3.94390816
   Si     28.82501959     23.48051240     10.83911216      3.94419480
   Si     25.08031244     23.43440927     10.83536049      3.90990548
   Si     20.86540735     24.06730677     10.69820782      3.96590732
   Si     17.37361144     23.36243585     10.31769201      4.04101559
   Si     13.88181642     24.06730567     10.69820557      3.96590795
   Si     42.42937234     20.09462343     10.30940318      4.03930189
   Si     38.61948348     19.95000578     10.83852731      3.94390604
   Si     34.74723016     20.06132059     10.27714500      4.03524284
   Si     30.87497702     19.95000403     10.83852816      3.94390838
   Si     27.06508342     20.09462410     10.30940850      4.03930926