   61
Geometry Step: 0
    H     11.58240908      8.90630932      2.86193171      1.05367852
    H      7.71850805      8.91793037      2.86125925      1.05677068
    H     15.44631011      8.91793037      2.86125925      1.05707961
    H      9.66052267      5.57750442      2.86193170      1.05351079
    H      5.79120454      5.56194977      2.86140756      1.05421841
    H     13.50429548      5.57750442      2.86193170      1.05332794
    H      7.71239285      2.23435394      2.86140755      1.05447915
    H      3.87001622      2.23435394      2.86140755      1.05459590
    H     11.58240908      2.22545752      2.86125925      1.05703334
   Si     11.58240908      8.91614266      4.36424935      3.90546034
   Si      7.72160605      8.91614266      4.36424935      3.90258009
   Si     15.44321210      8.91614266      4.36424935      3.90432747
   Si      9.65200756      5.57258916      4.36424935      3.90510765
   Si      5.79120454      5.57258916      4.36424935      3.90999689
   Si     13.51281059      5.57258916      4.36424935      3.90410206
   Si      7.72160605      2.22903567      4.36424935      3.90436910
   Si      3.86080303      2.22903567      4.36424935      3.90942729
   Si     11.58240908      2.22903567      4.36424935      3.90333573
   Si      9.65200756      7.80162483      5.15233247      4.03454487
   Si      5.79120454      7.80162483      5.15233247      4.02758874
   Si     13.51281059      7.80162483      5.15233247      4.03907757
   Si      7.72160605      4.45807133      5.15233247      4.02391509
   Si      3.86080303      4.45807133      5.15233247      4.03197610
   Si     11.58240908      4.45807133      5.15233247      4.04707115
   Si      5.79120454      1.11451783      5.15233247      4.03103044
   Si      1.93040151      1.11451783      5.15233247      4.03036431
   Si      9.65200756      1.11451783      5.15233247      4.02345882
   Si      9.61068350      7.95917595      7.56115370      4.01886220
   Si      5.91363121      7.94935663      7.55966545      3.98094148
   Si     13.60098543      7.93572152      7.44969148      3.97373036
   Si      7.83746545      4.62973410      7.45864498      4.02460664
   Si      3.85893153      4.60475804      7.44496635      4.01308934
   Si     11.60010719      4.43209680      7.64073898      3.98655197
   Si      5.86436869      1.21341230      7.42866422      4.00782794
   Si      1.96857376      1.25501249      7.63394824      3.96574028
   Si      9.78289889      1.14951072      7.48639512      3.99169861
   Si     11.61310842      6.78604035      8.00837707      3.95920563
   Si      7.78972414      6.74959153      8.60393656      3.97674119
   Si      3.94497500      6.83601334      8.21772967      4.00038991
   Si      9.56657503      3.31881952      8.37754801      3.99776941
   Si      5.84782273      3.50318304      7.97650023      3.96186706
   Si      2.06848852      3.51108452      8.49861282      4.00011727
   Si      7.79710992      0.14721363      8.23054888      4.01091582
   Si      3.98494272      0.21554074      8.41396286      4.01301584
   Si      0.06685065      0.10073582      8.55656063      4.17839450
   Si     12.03021385      7.62912516     10.13672158      4.01515189
   Si      8.70753616      6.73854364     10.96962290      3.93294913
   Si      3.80503934      6.65510581     10.56608000      3.97125101
   Si      9.76519348      4.71332975     11.97041587      4.06645444
   Si      6.29132442      3.87328461     10.21506375      3.99915971
   Si      2.67448880      4.43512551     10.68251096      3.98028099
   Si      7.46504737      0.63506146     10.53971668      3.98864540
   Si      4.94802610      0.69273482     10.66413906      3.93166746
   Si     10.38093752      8.49138821     11.64344811      4.02933329
   Si     13.80881342      8.38279215     11.54793698      4.02033058
   Si      6.21365450      6.17242567     11.02158852      4.05513461
   Si      8.53183041      2.98931705     10.58232035      3.99348211
   Si      4.46368679      2.92754494     11.70533937      4.05903473
   Si     11.97918379      5.42309917     11.19884364      4.00781119
   Si      6.30988401      4.26242104     12.62595063      3.95108703
   Si     12.05814783      7.19268556     12.93741411      4.00433294
