   61
Geometry Step: 0
    H     11.58240908      8.90630932      2.86193171      1.05129185
    H      7.71850805      8.91793037      2.86125925      1.05585037
    H     15.44631011      8.91793037      2.86125925      1.06040644
    H      9.66052267      5.57750442      2.86193170      1.06412350
    H      5.79120454      5.56194977      2.86140756      1.05426551
    H     13.50429548      5.57750442      2.86193170      1.05835747
    H      7.71239285      2.23435394      2.86140755      1.04964658
    H      3.87001622      2.23435394      2.86140755      1.06166028
    H     11.58240908      2.22545752      2.86125925      1.05842738
   Si     11.58240908      8.91614266      4.36424935      3.89214435
   Si      7.72160605      8.91614266      4.36424935      3.88587936
   Si     15.44321210      8.91614266      4.36424935      3.90602204
   Si      9.65200756      5.57258916      4.36424935      3.90033147
   Si      5.79120454      5.57258916      4.36424935      3.90875628
   Si     13.51281059      5.57258916      4.36424935      3.90456486
   Si      7.72160605      2.22903567      4.36424935      3.89366224
   Si      3.86080303      2.22903567      4.36424935      3.91465251
   Si     11.58240908      2.22903567      4.36424935      3.89588570
   Si      9.65200756      7.80162483      5.15233247      4.05333326
   Si      5.79120454      7.80162483      5.15233247      4.03139595
   Si     13.51281059      7.80162483      5.15233247      4.02082168
   Si      7.72160605      4.45807133      5.15233247      4.03888855
   Si      3.86080303      4.45807133      5.15233247      4.02496682
   Si     11.58240908      4.45807133      5.15233247      4.02567400
   Si      5.79120454      1.11451783      5.15233247      3.99436013
   Si      1.93040151      1.11451783      5.15233247      4.03297355
   Si      9.65200756      1.11451783      5.15233247      4.04869904
   Si      9.78911889      7.83906454      9.27160363      3.96065659
   Si      5.72857637      8.02204437      7.46682396      3.96348196
   Si     13.59295491      7.95012101      7.49320299      4.03137157
   Si      7.66146050      4.48776767      7.57296041      3.99135465
   Si      3.78095445      4.53511042      7.52199131      4.00744081
   Si     11.64020898      4.53947200      7.53721923      3.98148579
   Si      4.99575566      1.37392728      7.43151342      3.95669468
   Si      1.94661769      1.22869318      7.63862909      4.01695197
   Si      9.79011747      1.17555038      7.63395212      3.91962911
   Si     11.94705299      6.68321098      8.65278449      3.89196568
   Si      7.60420619      6.84634197      8.18811680      3.95179907
   Si      3.89460025      6.77343207      8.31595960      4.04487264
   Si      9.70094631      3.55801538      8.49650914      4.07763309
   Si      5.59023737      3.47840336      8.63391689      3.99855013
   Si      2.01336089      3.46354328      8.71448278      4.08407183
   Si      8.06669880     -0.16182754      8.89021650      4.11038930
   Si      3.73890236      0.34073248      9.06371744      4.06765515
   Si      0.10650787      0.05768986      8.64728107      4.11896464
   Si     12.83146568      5.81962107     10.86664647      4.02707245
   Si      7.70667979      7.64355548     14.89913581      3.94704352
   Si      4.44833600      3.69547812     13.26696567      4.03262636
   Si      7.60418588      7.79574168     10.45595692      3.99297027
   Si      7.03969260      6.37804420     13.26472536      4.03814442
   Si      4.21170186      5.75070273     11.96673198      3.97649736
   Si      7.28012739      1.72635879      7.58233941      3.93810986
   Si      3.90501018     -3.44448160      7.07481046      4.04713725
   Si     11.84584166      6.99373650     12.76387769      4.09174528
   Si     14.71234656      7.45712427     10.51214587      3.99182718
   Si      8.26070217      4.45546127     11.78178520      3.98210588
   Si      4.20146605      3.51120269     10.75379837      3.97514013
   Si      6.84472741      4.02298557     13.65359578      4.00044851
   Si     10.09646495      5.25627988     10.35800363      3.93271334
   Si      6.45123469      5.66576166     10.98117451      3.96216534
   Si     12.80970178      7.92307546     14.41238745      4.00224300
