   61
Geometry Step: 0
    H     11.58240908      8.90630932      2.86193171      1.05527804
    H      7.71850805      8.91793037      2.86125925      1.05579545
    H     15.44631011      8.91793037      2.86125925      1.05581667
    H      9.66052267      5.57750442      2.86193170      1.05748351
    H      5.79120454      5.56194977      2.86140756      1.05300851
    H     13.50429548      5.57750442      2.86193170      1.05632860
    H      7.71239285      2.23435394      2.86140755      1.05319370
    H      3.87001622      2.23435394      2.86140755      1.05379236
    H     11.58240908      2.22545752      2.86125925      1.05622146
   Si     11.58240908      8.91614266      4.36424935      3.90618723
   Si      7.72160605      8.91614266      4.36424935      3.90307948
   Si     15.44321210      8.91614266      4.36424935      3.89752507
   Si      9.65200756      5.57258916      4.36424935      3.91688707
   Si      5.79120454      5.57258916      4.36424935      3.90812099
   Si     13.51281059      5.57258916      4.36424935      3.90839318
   Si      7.72160605      2.22903567      4.36424935      3.90881420
   Si      3.86080303      2.22903567      4.36424935      3.91440839
   Si     11.58240908      2.22903567      4.36424935      3.90242219
   Si      9.65200756      7.80162483      5.15233247      4.03117746
   Si      5.79120454      7.80162483      5.15233247      4.03381713
   Si     13.51281059      7.80162483      5.15233247      4.02639562
   Si      7.72160605      4.45807133      5.15233247      4.02747742
   Si      3.86080303      4.45807133      5.15233247      4.03270462
   Si     11.58240908      4.45807133      5.15233247      4.03067689
   Si      5.79120454      1.11451783      5.15233247      4.03201679
   Si      1.93040151      1.11451783      5.15233247      4.02829249
   Si      9.65200756      1.11451783      5.15233247      4.03370137
   Si      9.61725059      7.66325551      7.54178167      3.98274728
   Si      5.83093062      7.76686566      7.62658788      3.95714156
   Si     13.50426620      7.72954888      7.44447444      4.00758580
   Si      7.77128655      4.43737933      7.47312752      4.02035392
   Si      3.80743435      4.42445983      7.41615288      3.99793819
   Si     11.49350794      4.42179673      7.53292271      3.99325615
   Si      5.75458455      1.02768382      7.40413013      3.99837099
   Si      1.81675948      0.98781845      7.46456209      3.97392159
   Si      9.67841300      1.07042677      7.57901771      3.96602986
   Si     11.61940681      6.63235152      8.36665925      4.02346948
   Si      7.70305168      6.52803174      8.54418481      4.00614332
   Si      3.81233933      6.59277107      8.30697402      4.02609015
   Si      9.57747334      3.27502805      8.45636594      3.99338140
   Si      5.78129372      3.30438380      7.92520979      3.93538712
   Si      1.85493291      3.23840079      8.12338740      3.99839242
   Si      7.64221458     -0.08902511      8.23403202      4.01312598
   Si      3.79099502     -0.09444266      8.15122819      3.99813053
   Si     -0.02314356     -0.04716243      8.57768251      4.17440339
   Si     10.95593495      5.78819199     12.21547753      4.04401794
   Si      7.65931563      5.51185671     10.82872961      3.97104620
   Si      2.95491182      5.29231147     10.30112650      3.93513979
   Si      8.98670741      3.26770049     10.80379843      3.97254670
   Si      5.56470820      2.70804113     10.11205437      3.98450082
   Si      1.73364096      3.09022955     10.52962549      3.99235021
   Si      6.42656166     -0.79757858     10.30875940      3.95188779
   Si      3.94694544     -0.74798577     10.50235735      4.01449419
   Si      8.94782566      7.18276369     12.09278871      4.04587638
   Si     12.53534792      6.78409720     10.61421522      3.97137297
   Si      5.27041446      4.75095704     11.34207416      4.06994162
   Si      7.19855935      1.45117274     11.25824560      4.06439277
   Si      3.62978568      1.60882579     10.99278565      4.01550994
   Si     11.16239776      3.35661455     12.04391923      4.06028642
   Si      5.27809026      2.54310219     12.57320548      3.99080753
   Si     10.67687125      5.61267347     14.45014297      3.91094371
