   61
Geometry Step: 0
    H     11.58240908      8.90630932      2.86193171      1.05731933
    H      7.71850805      8.91793037      2.86125925      1.05729475
    H     15.44631011      8.91793037      2.86125925      1.05722123
    H      9.66052267      5.57750442      2.86193170      1.05417935
    H      5.79120454      5.56194977      2.86140756      1.05344733
    H     13.50429548      5.57750442      2.86193170      1.05509736
    H      7.71239285      2.23435394      2.86140755      1.05533955
    H      3.87001622      2.23435394      2.86140755      1.05595988
    H     11.58240908      2.22545752      2.86125925      1.05700060
   Si     11.58240908      8.91614266      4.36424935      3.91546873
   Si      7.72160605      8.91614266      4.36424935      3.89986853
   Si     15.44321210      8.91614266      4.36424935      3.90238505
   Si      9.65200756      5.57258916      4.36424935      3.90432745
   Si      5.79120454      5.57258916      4.36424935      3.89462607
   Si     13.51281059      5.57258916      4.36424935      3.90193151
   Si      7.72160605      2.22903567      4.36424935      3.90947211
   Si      3.86080303      2.22903567      4.36424935      3.89964933
   Si     11.58240908      2.22903567      4.36424935      3.89910533
   Si      9.65200756      7.80162483      5.15233247      4.03147707
   Si      5.79120454      7.80162483      5.15233247      4.02846225
   Si     13.51281059      7.80162483      5.15233247      4.02346599
   Si      7.72160605      4.45807133      5.15233247      4.03440894
   Si      3.86080303      4.45807133      5.15233247      4.03709788
   Si     11.58240908      4.45807133      5.15233247      4.02978681
   Si      5.79120454      1.11451783      5.15233247      4.02470430
   Si      1.93040151      1.11451783      5.15233247      4.03102755
   Si      9.65200756      1.11451783      5.15233247      4.02645856
   Si      9.72488118      7.92181149      7.53099670      3.98350504
   Si      5.86614267      7.87006807      7.50685591      3.97493303
   Si     13.56205155      7.85715688      7.48766972      4.02556279
   Si      7.86636161      4.48542677      7.57758849      3.97822269
   Si      3.86578514      4.41842952      7.51749467      3.98993038
   Si     11.61577720      4.47187786      7.54781226      4.02099810
   Si      5.89956530      1.10144854      7.48518614      3.99893260
   Si      1.88473053      1.18391432      7.56583817      3.97759892
   Si      9.72754267      1.10945331      7.57067263      3.98855606
   Si     11.67237009      6.73374537      8.34270408      3.99405359
   Si      7.81141070      6.75922721      8.31143018      4.02554741
   Si      3.92366081      6.69298382      8.14672990      4.02366882
   Si      9.75150781      3.29461917      8.52510150      3.98805384
   Si      5.89015754      3.33352104      8.24595444      4.04261119
   Si      1.92214242      3.38968587      8.45855943      3.97823298
   Si      7.80272177     -0.03389490      8.55612184      3.97224515
   Si      3.89575139      0.17756173      8.33132494      4.02430563
   Si      0.02822329      0.00028895      8.53918315      4.16992528
   Si     10.94526541      7.39503710     10.58337446      4.03159013
   Si      7.84753532      7.01244080     10.66485013      3.99682277
   Si      3.70170903      6.80985772     10.47173292      3.95797006
   Si     10.53700820      3.01314761     10.79944561      3.94849266
   Si      4.87714525      3.41756729     10.52782366      4.06315031
   Si      1.32100998      3.61397039     10.75340577      4.06228309
   Si      9.67143096      1.08538717     11.93122684      4.10668832
   Si      4.16241524      0.94161663     10.64662202      3.99310067
   Si     11.95517710      9.64404235     10.58387778      3.95934007
   Si     14.76538854      9.13667979     10.75051557      3.91346708
   Si      5.78070333      5.75895312     11.16943590      3.96221312
   Si      7.91485617      2.10703201     10.51693942      3.98454951
   Si      6.65524384      3.28769719     12.14480325      3.97170062
   Si     13.01297861      6.05442203     10.86353293      3.91266921
   Si      5.96984989      5.09341651     13.44659936      4.01344633
   Si     12.97632100      8.20096015     12.26929642      4.06904970
