   61
Geometry Step: 0
    H     11.58240908      8.90630932      2.86193171      1.05596188
    H      7.71850805      8.91793037      2.86125925      1.05588532
    H     15.44631011      8.91793037      2.86125925      1.05466879
    H      9.66052267      5.57750442      2.86193170      1.05544384
    H      5.79120454      5.56194977      2.86140756      1.05395090
    H     13.50429548      5.57750442      2.86193170      1.05649580
    H      7.71239285      2.23435394      2.86140755      1.05463120
    H      3.87001622      2.23435394      2.86140755      1.05674417
    H     11.58240908      2.22545752      2.86125925      1.05684792
   Si     11.58240908      8.91614266      4.36424935      3.91182829
   Si      7.72160605      8.91614266      4.36424935      3.90718218
   Si     15.44321210      8.91614266      4.36424935      3.90256240
   Si      9.65200756      5.57258916      4.36424935      3.90768934
   Si      5.79120454      5.57258916      4.36424935      3.90372797
   Si     13.51281059      5.57258916      4.36424935      3.90353423
   Si      7.72160605      2.22903567      4.36424935      3.90205321
   Si      3.86080303      2.22903567      4.36424935      3.89927452
   Si     11.58240908      2.22903567      4.36424935      3.89857772
   Si      9.65200756      7.80162483      5.15233247      4.02349095
   Si      5.79120454      7.80162483      5.15233247      4.02961557
   Si     13.51281059      7.80162483      5.15233247      4.03661392
   Si      7.72160605      4.45807133      5.15233247      4.03331282
   Si      3.86080303      4.45807133      5.15233247      4.03289294
   Si     11.58240908      4.45807133      5.15233247      4.02437948
   Si      5.79120454      1.11451783      5.15233247      4.03928087
   Si      1.93040151      1.11451783      5.15233247      4.03214381
   Si      9.65200756      1.11451783      5.15233247      4.03198889
   Si      9.73208682      7.79305225      7.45558238      4.02084746
   Si      5.79780682      7.84551870      7.45343550      4.00029871
   Si     13.55193868      7.83196026      7.48125795      3.97514715
   Si      7.72769684      4.47270990      7.51025208      3.99912851
   Si      3.80170245      4.35455161      7.51677912      3.97348242
   Si     11.64299707      4.41858683      7.54419028      4.00264154
   Si      5.75710290      1.13889021      7.55775636      3.98111120
   Si      1.91369990      1.07294719      7.63200112      3.96314662
   Si      9.66664692      1.15929767      7.53526557      3.99310337
   Si     11.63069181      6.64941227      8.40831366      3.99596963
   Si      7.73537839      6.74103931      8.17514194      4.00689934
   Si      3.91701901      6.63802589      8.10967975      4.01289143
   Si      9.64923423      3.39298230      8.38634621      3.99940169
   Si      5.78414024      3.38718812      8.33036474      3.98316062
   Si      1.91175423      3.29284457      8.56075066      4.16845143
   Si      7.73043707      0.04477019      8.29158990      4.00081562
   Si      3.88493056     -0.10154454      8.41308987      4.01893693
   Si     -0.08353330     -0.05887992      8.46828659      4.01566314
   Si     10.32928594      6.27831002     10.51437254      3.91077003
   Si      9.64734187      8.98853807     10.69509019      4.00656315
   Si      4.83414674      9.40566715     10.78275039      4.05399186
   Si      9.73526308      3.90124162     10.75811344      4.04174071
   Si      7.97897925      6.93491308     10.51372216      3.96567508
   Si      4.01812080      7.10919354     10.38546968      3.95875099
   Si      8.01133576     -0.25242445     10.62390099      4.01464761
   Si      5.79207223      3.27257874     10.70740164      4.12408178
   Si     11.66772093      9.54352567     11.98628844      3.98528682
   Si     11.69081421      7.00289888     12.26805602      4.00297594
   Si      6.30138252      7.64483332     12.05550257      3.91548087
   Si      7.54534932      4.67570167     11.55716860      3.98032230
   Si      4.83917461      5.27744667     11.52891586      3.94426062
   Si     13.24157193      7.42484099     10.53563841      3.96832464
   Si      6.26417406      5.58659709     13.44181061      4.10001224
   Si     11.88260970      8.22344513     14.07082270      3.99523963
