   61
Geometry Step: 0
    H     11.58240908      8.90630932      2.86193171      1.05417574
    H      7.71850805      8.91793037      2.86125925      1.04951697
    H     15.44631011      8.91793037      2.86125925      1.05957926
    H      9.66052267      5.57750442      2.86193170      1.06323371
    H      5.79120454      5.56194977      2.86140756      1.05570331
    H     13.50429548      5.57750442      2.86193170      1.05660418
    H      7.71239285      2.23435394      2.86140755      1.06048985
    H      3.87001622      2.23435394      2.86140755      1.05401815
    H     11.58240908      2.22545752      2.86125925      1.05038532
   Si     11.58240908      8.91614266      4.36424935      3.88119229
   Si      7.72160605      8.91614266      4.36424935      3.90054374
   Si     15.44321210      8.91614266      4.36424935      3.89878526
   Si      9.65200756      5.57258916      4.36424935      3.92755386
   Si      5.79120454      5.57258916      4.36424935      3.90120659
   Si     13.51281059      5.57258916      4.36424935      3.90038476
   Si      7.72160605      2.22903567      4.36424935      3.90214919
   Si      3.86080303      2.22903567      4.36424935      3.91039028
   Si     11.58240908      2.22903567      4.36424935      3.88941999
   Si      9.65200756      7.80162483      5.15233247      4.03402841
   Si      5.79120454      7.80162483      5.15233247      4.03155531
   Si     13.51281059      7.80162483      5.15233247      4.03321437
   Si      7.72160605      4.45807133      5.15233247      4.02926437
   Si      3.86080303      4.45807133      5.15233247      4.02234890
   Si     11.58240908      4.45807133      5.15233247      4.02924731
   Si      5.79120454      1.11451783      5.15233247      4.03820554
   Si      1.93040151      1.11451783      5.15233247      4.03864469
   Si      9.65200756      1.11451783      5.15233247      4.03348250
   Si      9.72093917      6.88363645      7.35936225      4.01873848
   Si      5.78644812      7.83518839      7.58758873      3.98025306
   Si     13.69930802      7.84047916      7.62495460      3.99981329
   Si      7.69086537      4.36079342      7.53345156      4.01928578
   Si      3.98905236      4.49938109      7.46425318      3.94354614
   Si     11.13859605      4.87270207      7.51130379      3.94728555
   Si      5.93194540      1.13335687      7.63370071      3.98684292
   Si      1.97558302      0.91218727      7.54761903      3.91223498
   Si      9.58055679      1.11822869      7.53057418      3.97873904
   Si     12.01999774      6.70207642      8.83909791      4.03021585
   Si      7.56610799      6.53047201      8.48989957      3.98034359
   Si      4.04617221      6.56963239      8.59045408      4.09973788
   Si      9.64934176      3.32223762      8.55796753      3.99267594
   Si      5.79258416      3.40507908      8.49803880      4.04659707
   Si      2.09866940      3.40329469      8.27905450      4.07922734
   Si      7.80810379     -0.00568894      8.67865975      4.17809835
   Si      3.98443438      0.40227981      8.76462265      3.96067443
   Si     -0.07657464      0.07486801      8.41194616      4.02465771
   Si      7.86575375      2.47001353     11.50642520      3.98280586
   Si      4.54206918      2.48638801     12.90132047      3.95489307
   Si      1.40730418      3.00364747      8.78174931      4.03670507
   Si      6.63314844      0.75824565     12.69310011      3.94826309
   Si      3.65454365      1.53137966     10.86769356      4.05091856
   Si     -0.35626959      1.56442473     10.24494949      3.95576349
   Si      4.35421819     -1.87129455      9.31038443      3.93851633
   Si     -0.05420620     -4.93561755     10.25751580      3.91423259
   Si      6.70703738      5.10969055     12.40290773      3.98851134
   Si      9.02479497      4.33290066     10.72466604      4.00628313
   Si      1.57805226      2.68732750     11.22570966      4.01357162
   Si      4.32395335     -2.28755477     11.77721251      4.00280567
   Si      2.32665971     -3.44160241     10.88891341      3.98767328
   Si      9.63226362      0.92469467     11.81052937      4.01585141
   Si      4.27567490      0.05663441     12.63534875      4.05399381
   Si      6.82060966      2.95797008     13.74128870      4.06492042
