   61
Geometry Step: 0
    H     11.58240908      8.90751709      2.86252798      1.05192204
    H      7.72472397      8.91434163      2.86124391      1.05766873
    H     15.44009418      8.91434163      2.86124391      1.05766873
    H      9.65947671      5.57690057      2.86252798      1.05192203
    H      5.79120454      5.55147300      2.86191711      1.05282418
    H     13.50534144      5.57690057      2.86252798      1.05192203
    H      7.70331965      2.23959247      2.86191709      1.05282419
    H      3.87908942      2.23959247      2.86191709      1.05282419
    H     11.58240908      2.23263513      2.86124391      1.05766873
   Si     11.58240908      8.91614266      4.36424935      3.91015343
   Si      7.72160605      8.91614266      4.36424935      3.90063457
   Si     15.44321210      8.91614266      4.36424935      3.90063457
   Si      9.65200756      5.57258916      4.36424935      3.91015344
   Si      5.79120454      5.57258916      4.36424935      3.91849452
   Si     13.51281059      5.57258916      4.36424935      3.91015344
   Si      7.72160605      2.22903567      4.36424935      3.91849450
   Si      3.86080303      2.22903567      4.36424935      3.91849450
   Si     11.58240908      2.22903567      4.36424935      3.90063458
   Si      9.65200756      7.80162483      5.15233247      4.03581484
   Si      5.79120454      7.80162483      5.15233247      4.01841784
   Si     13.51281059      7.80162483      5.15233247      4.03581484
   Si      7.72160605      4.45807133      5.15233247      4.03183155
   Si      3.86080303      4.45807133      5.15233247      4.03183155
   Si     11.58240908      4.45807133      5.15233247      4.03581484
   Si      5.79120454      1.11451783      5.15233247      4.03183156
   Si      1.93040151      1.11451783      5.15233247      4.01841791
   Si      9.65200756      1.11451783      5.15233247      4.01841791
   Si      9.65200756      7.80162483      7.51658182      4.00235773
   Si      5.79120454      7.80162483      7.51658182      3.97560360
   Si     13.51281059      7.80162483      7.51658182      4.00235773
   Si      7.72160605      4.45807133      7.51658182      4.04022497
   Si      3.86080303      4.45807133      7.51658182      4.04022497
   Si     11.58240908      4.45807133      7.51658182      4.00235752
   Si      5.79120454      1.11451783      7.51658182      4.04022477
   Si      1.93040151      1.11451783      7.51658182      3.97560326
   Si      9.65200756      1.11451783      7.51658182      3.97560326
   Si     11.58240908      6.68710842      8.07420436      3.91433146
   Si      7.72508233      6.66140692      8.35760330      3.99960536
   Si      3.85732675      6.66140692      8.35760330      3.99960536
   Si      9.63148716      3.35941640      8.35760350      3.99960559
   Si      5.79120454      3.34355496      8.04732029      3.87634540
   Si      1.95092191      3.35941640      8.35760350      3.99960559
   Si      7.69760973      0.00984222      8.35760405      3.99960549
   Si      3.88479934      0.00984222      8.35760405      3.99960549
   Si      0.00000000      0.00000203      8.54354696      4.28184085
   Si     11.58240908      6.68710782     10.35485038      4.05267892
   Si      8.06944990      6.10209233     10.68688998      3.93095100
   Si      3.51295918      6.10209233     10.68688998      3.93095100
   Si      9.31928839      3.93730373     10.68689014      3.93095102
   Si      5.79120454      3.34355629     10.31964971      4.04586997
   Si      2.26312069      3.93730373     10.68689014      3.93095102
   Si      7.04104692     -0.00873047     10.68689153      3.93095212
   Si      4.54136216     -0.00873047     10.68689153      3.93095212
   Si      9.77504062      7.73059138     11.53230370      4.06511385
   Si     13.38977753      7.73059138     11.53230370      4.06511385
   Si      5.79120454      5.42544886     11.48760222      4.05609899
   Si      7.59417460      2.30261196     11.48760212      4.05609766
   Si      3.98823447      2.30261196     11.48760212      4.05609766
   Si     11.58240908      4.60013625     11.53230401      4.06511517
   Si      5.79120454      3.34355584     12.88154287      3.95343383
   Si     11.58240908      6.68710817     12.92496206      3.94067816
