   61
Geometry Step: 0
    H     11.58240908      8.90630932      2.86193171      1.05417701
    H      7.71850805      8.91793037      2.86125925      1.05911962
    H     15.44631011      8.91793037      2.86125925      1.05867323
    H      9.66052267      5.57750442      2.86193170      1.05657378
    H      5.79120454      5.56194977      2.86140756      1.05706808
    H     13.50429548      5.57750442      2.86193170      1.05274896
    H      7.71239285      2.23435394      2.86140755      1.05528719
    H      3.87001622      2.23435394      2.86140755      1.05231914
    H     11.58240908      2.22545752      2.86125925      1.05560958
   Si     11.58240908      8.91614266      4.36424935      3.90804480
   Si      7.72160605      8.91614266      4.36424935      3.90507843
   Si     15.44321210      8.91614266      4.36424935      3.90280823
   Si      9.65200756      5.57258916      4.36424935      3.90818667
   Si      5.79120454      5.57258916      4.36424935      3.90752194
   Si     13.51281059      5.57258916      4.36424935      3.90323615
   Si      7.72160605      2.22903567      4.36424935      3.90993564
   Si      3.86080303      2.22903567      4.36424935      3.90416746
   Si     11.58240908      2.22903567      4.36424935      3.89840118
   Si      9.65200756      7.80162483      5.15233247      4.03048265
   Si      5.79120454      7.80162483      5.15233247      4.01865743
   Si     13.51281059      7.80162483      5.15233247      4.03167363
   Si      7.72160605      4.45807133      5.15233247      4.01481587
   Si      3.86080303      4.45807133      5.15233247      4.03309287
   Si     11.58240908      4.45807133      5.15233247      4.04062612
   Si      5.79120454      1.11451783      5.15233247      4.03264334
   Si      1.93040151      1.11451783      5.15233247      4.03202908
   Si      9.65200756      1.11451783      5.15233247      4.02356769
   Si      9.67470297      7.88536586      7.56725421      3.98117306
   Si      5.97440782      7.91757825      7.51107446      3.97717034
   Si     13.64865923      7.82980552      7.44677383      4.00899097
   Si      7.91850569      4.56456563      7.48023467      4.02295787
   Si      3.98774002      4.51703912      7.41942740      3.99326319
   Si     11.55774514      4.42082375      7.56197310      3.95389416
   Si      5.97742955      1.10383678      7.53933442      4.00516644
   Si      2.00655885      1.12410658      7.57773670      3.94772669
   Si      9.76943627      1.13255797      7.57799663      4.00387724
   Si     11.68848312      6.74865614      8.18606021      3.96195202
   Si      7.78744008      6.72697717      8.52796080      4.13695391
   Si      4.03919411      6.76283580      8.17315233      4.00656992
   Si      9.61191419      3.29624321      8.57982118      4.01990946
   Si      5.96536048      3.43103043      8.09027639      3.95630250
   Si      2.05640955      3.41965058      8.18324034      4.03286134
   Si      7.91762050     -0.05698535      8.47126178      4.00746835
   Si      4.02404422      0.12178145      8.39933427      4.01247227
   Si      0.09456024      0.04984943      8.54054321      4.16292241
   Si     12.02410971      7.80541286     10.43015376      3.94218147
   Si      8.48385838      6.97137570     12.42714933      3.99120023
   Si      3.96835894      6.68660292     10.55938122      3.99083204
   Si      9.16462145      4.77474207     12.20334539      4.05305424
   Si      6.19376519      3.94857752     10.37738931      3.97636658
   Si      2.80824084      4.48112977     10.26408823      3.92907925
   Si      7.18031299      0.85114957     11.48889227      4.01066249
   Si      4.78830030      0.65765995     10.70811861      3.96717680
   Si      9.92229509      8.42737351     11.18246765      3.96676911
   Si     14.10223546      8.91217275     10.68187199      4.00238453
   Si      6.29619347      6.12261398     11.45310911      4.01154167
   Si      8.29544913      2.91058874     10.83869591      3.94134268
   Si      4.26809654      2.92794141     11.42435779      4.10140783
   Si     12.11047303      5.35228662     10.43041085      4.04881130
   Si      6.72535382      4.14510073     12.95593892      3.97022807
   Si     11.38738224      6.45710040     12.45068197      3.99878376
