   61
Geometry Step: 0
    H     11.58240908      8.90630932      2.86193171      1.05585278
    H      7.71850805      8.91793037      2.86125925      1.05640810
    H     15.44631011      8.91793037      2.86125925      1.05682307
    H      9.66052267      5.57750442      2.86193170      1.05455505
    H      5.79120454      5.56194977      2.86140756      1.05222061
    H     13.50429548      5.57750442      2.86193170      1.05428269
    H      7.71239285      2.23435394      2.86140755      1.05444786
    H      3.87001622      2.23435394      2.86140755      1.05457032
    H     11.58240908      2.22545752      2.86125925      1.05792692
   Si     11.58240908      8.91614266      4.36424935      3.91095488
   Si      7.72160605      8.91614266      4.36424935      3.90098428
   Si     15.44321210      8.91614266      4.36424935      3.90083852
   Si      9.65200756      5.57258916      4.36424935      3.90689580
   Si      5.79120454      5.57258916      4.36424935      3.91021002
   Si     13.51281059      5.57258916      4.36424935      3.90844753
   Si      7.72160605      2.22903567      4.36424935      3.91089319
   Si      3.86080303      2.22903567      4.36424935      3.91368910
   Si     11.58240908      2.22903567      4.36424935      3.90254165
   Si      9.65200756      7.80162483      5.15233247      4.03668187
   Si      5.79120454      7.80162483      5.15233247      4.03379425
   Si     13.51281059      7.80162483      5.15233247      4.03361474
   Si      7.72160605      4.45807133      5.15233247      4.03112761
   Si      3.86080303      4.45807133      5.15233247      4.01122510
   Si     11.58240908      4.45807133      5.15233247      4.02589441
   Si      5.79120454      1.11451783      5.15233247      4.02374606
   Si      1.93040151      1.11451783      5.15233247      4.02548023
   Si      9.65200756      1.11451783      5.15233247      4.02792175
   Si      9.68584912      7.75434135      7.60938952      3.98128172
   Si      5.86912759      7.84707896      7.56405846      3.94999173
   Si     13.48696649      7.81554031      7.51825982      3.97971446
   Si      7.76224005      4.47588967      7.43100361      4.01418575
   Si      3.85172365      4.39618991      7.48543973      4.00002344
   Si     11.63355945      4.40430241      7.46841604      4.01563200
   Si      5.82275894      1.03643172      7.41760594      4.01989739
   Si      1.94996797      0.99808206      7.55623731      3.98221689
   Si      9.75277893      1.02338800      7.49340202      3.98079860
   Si     11.63876869      6.58634128      8.35821416      3.99750408
   Si      7.74146750      6.61549321      8.41679610      3.99788941
   Si      3.88548253      6.71639363      8.16703664      4.04458255
   Si      9.64772531      3.28004957      8.15041234      3.99188266
   Si      5.86519696      3.27178384      8.08906423      3.98143149
   Si      1.92553738      3.21297758      8.45486718      4.02065806
   Si      7.76464880      0.03946298      8.30319445      3.99665254
   Si      3.97860850     -0.02382839      8.41495337      4.01912337
   Si      0.03614548     -0.01423300      8.59246775      4.19744063
   Si     11.96521948      5.62000970     10.53457949      3.96591723
   Si      7.73530865      5.45011914     10.48959058      3.94029782
   Si      3.40440481      5.31247937     10.07692810      3.95894152
   Si      9.44672877      3.27559790     10.57108397      3.98358739
   Si      6.11121432      2.69245051     10.39162243      3.91963213
   Si      2.29215494      3.30190385     12.39875528      4.03313372
   Si      7.37104603      0.21734749     10.69763356      4.00812263
   Si      4.89670920      0.21664258     10.67031629      4.04473153
   Si      9.81530966      5.52856831     11.64827913      4.05060107
   Si     13.26824379      5.72531918     12.55964376      4.08401577
   Si      5.51448433      5.06927628     11.29564393      4.01108974
   Si      7.87409631      2.15252663     12.08668030      4.01420758
   Si      3.65762653      2.30241253     10.65961517      3.94878996
   Si     12.03831560      3.18429922     10.71789972      4.00293188
   Si      5.60197216      3.24564114     12.82356673      4.00032093
   Si     11.28634401      4.37264786     13.18221394      3.95074396
