   61
Geometry Step: 0
    H     11.58240908      8.90630932      2.86193171      1.05428906
    H      7.71850805      8.91793037      2.86125925      1.05770471
    H     15.44631011      8.91793037      2.86125925      1.06055765
    H      9.66052267      5.57750442      2.86193170      1.05475005
    H      5.79120454      5.56194977      2.86140756      1.05445058
    H     13.50429548      5.57750442      2.86193170      1.05747502
    H      7.71239285      2.23435394      2.86140755      1.05289785
    H      3.87001622      2.23435394      2.86140755      1.05443898
    H     11.58240908      2.22545752      2.86125925      1.06035633
   Si     11.58240908      8.91614266      4.36424935      3.90664069
   Si      7.72160605      8.91614266      4.36424935      3.91039069
   Si     15.44321210      8.91614266      4.36424935      3.91038726
   Si      9.65200756      5.57258916      4.36424935      3.90887298
   Si      5.79120454      5.57258916      4.36424935      3.90872923
   Si     13.51281059      5.57258916      4.36424935      3.90112109
   Si      7.72160605      2.22903567      4.36424935      3.90487943
   Si      3.86080303      2.22903567      4.36424935      3.90309979
   Si     11.58240908      2.22903567      4.36424935      3.90376401
   Si      9.65200756      7.80162483      5.15233247      4.01526014
   Si      5.79120454      7.80162483      5.15233247      4.02312633
   Si     13.51281059      7.80162483      5.15233247      4.03309510
   Si      7.72160605      4.45807133      5.15233247      4.02212449
   Si      3.86080303      4.45807133      5.15233247      4.02876285
   Si     11.58240908      4.45807133      5.15233247      4.03851159
   Si      5.79120454      1.11451783      5.15233247      4.00714838
   Si      1.93040151      1.11451783      5.15233247      4.02970456
   Si      9.65200756      1.11451783      5.15233247      4.01563171
   Si      9.64845885      7.73044316      7.50829701      4.01726264
   Si      5.71670047      7.91792714      7.45789973      3.98868798
   Si     13.55666234      7.70422309      7.43886545      3.99427213
   Si      7.84795971      4.49698645      7.43392198      4.00549168
   Si      3.86985004      4.30845116      7.53563019      3.98119965
   Si     11.72298637      4.40773441      7.62241444      3.94047628
   Si      5.93594721      1.02192679      7.59103705      4.05259505
   Si      1.78314839      1.05720572      7.64365768      3.95961240
   Si      9.90164432      1.22065755      7.38646461      3.95254719
   Si     11.62545350      6.67948598      8.36111113      3.99135679
   Si      7.59369731      6.69081450      8.21344189      4.01283488
   Si      3.92577056      6.57139513      8.19114485      4.01772514
   Si      9.65670952      3.29389762      8.32611252      4.08061261
   Si      5.97301808      3.38192414      8.27582290      3.97046679
   Si      2.00537488      3.25557970      8.64404785      4.15601132
   Si      8.00039038     -0.00539329      8.08675943      3.99503807
   Si      3.35430149     -0.42314255      8.84923729      3.93509583
   Si     -0.12638467     -0.01373921      8.62769115      4.19406474
   Si     12.29259068      7.64525516     10.48816054      3.98555426
   Si      8.69656776      7.73211993     10.54016661      3.93836305
   Si      4.16652918      7.03816423     10.48742573      3.96350447
   Si      9.33221276      5.87251921     12.03140421      3.95585484
   Si      6.37415786      4.29087451     10.58332490      3.97612877
   Si      2.85403455      5.33956875     13.98002887      3.99038915
   Si      7.95810919      2.17255264      9.91703067      3.88089919
   Si      5.40999132     -0.02505951      9.93588017      4.05685937
   Si     10.86903792      7.60466131     12.45492443      4.05925666
   Si     14.36673170      9.06841509     10.38263526      4.04298577
   Si      6.58576520      6.69199710     10.54448408      3.95401786
   Si      8.63561621      3.59250212     11.67224085      4.03389313
   Si      4.73760991      4.35321318     12.46204880      3.98760108
   Si     14.10437992      5.60552457     11.51303282      4.05921171
   Si      7.23801617      4.90016319     13.08984846      4.02710991
   Si     12.87227203      6.93177048     13.60760818      3.96484909
