   61
Geometry Step: 0
    H     11.58240908      8.90630932      2.86193171      1.05518654
    H      7.71850805      8.91793037      2.86125925      1.05741586
    H     15.44631011      8.91793037      2.86125925      1.05641306
    H      9.66052267      5.57750442      2.86193170      1.05476384
    H      5.79120454      5.56194977      2.86140756      1.05773251
    H     13.50429548      5.57750442      2.86193170      1.05899040
    H      7.71239285      2.23435394      2.86140755      1.04810321
    H      3.87001622      2.23435394      2.86140755      1.05763967
    H     11.58240908      2.22545752      2.86125925      1.05565845
   Si     11.58240908      8.91614266      4.36424935      3.90149499
   Si      7.72160605      8.91614266      4.36424935      3.89343333
   Si     15.44321210      8.91614266      4.36424935      3.90606890
   Si      9.65200756      5.57258916      4.36424935      3.90570124
   Si      5.79120454      5.57258916      4.36424935      3.91186451
   Si     13.51281059      5.57258916      4.36424935      3.90634568
   Si      7.72160605      2.22903567      4.36424935      3.89069494
   Si      3.86080303      2.22903567      4.36424935      3.90132272
   Si     11.58240908      2.22903567      4.36424935      3.89088817
   Si      9.65200756      7.80162483      5.15233247      4.02478617
   Si      5.79120454      7.80162483      5.15233247      4.02728359
   Si     13.51281059      7.80162483      5.15233247      4.03040634
   Si      7.72160605      4.45807133      5.15233247      4.03209581
   Si      3.86080303      4.45807133      5.15233247      4.01805120
   Si     11.58240908      4.45807133      5.15233247      4.01699670
   Si      5.79120454      1.11451783      5.15233247      4.05358560
   Si      1.93040151      1.11451783      5.15233247      4.03928432
   Si      9.65200756      1.11451783      5.15233247      4.05251014
   Si      9.79223079      7.83433457      7.48574336      4.03598852
   Si      5.79279306      7.80818895      7.60508712      3.99439499
   Si     13.64608134      7.53210069      7.56284788      3.96860578
   Si      7.71161439      4.70948674      7.58004540      4.02873493
   Si      3.94676041      4.36317255      7.49250087      4.05080446
   Si     11.76153995      4.40803325      7.49496385      4.04637612
   Si      5.97943803      1.00089905      7.64314963      3.98878486
   Si      2.09994737      1.07198739      7.70461127      3.99036405
   Si      9.97394957      0.42361732      7.66561399      3.97184664
   Si     11.64579086      6.59710386      8.32492879      4.00541934
   Si      7.80524701      6.93609395      8.41245846      3.95898206
   Si      3.98763630      6.45693572      8.58759611      4.02426111
   Si      9.78669656      4.19991821      8.72039601      3.97876152
   Si      5.86570539      3.52078893      8.72649856      3.98763895
   Si      2.06894835      3.39968246      8.58195155      4.01801021
   Si      7.86369332     -0.43057383      8.58448536      3.97960405
   Si      4.07508971     -0.11990986      8.62863237      4.02931543
   Si      0.38822996     -0.18498826      8.84957647      4.11134083
   Si     12.42766688      8.14998558     12.13231916      4.03527606
   Si     10.10166266      8.59759942     10.93262558      3.95770003
   Si      2.21962569      6.31028801     12.50280947      3.99563498
   Si     10.41749055      5.94804871     10.33381925      3.92639945
   Si      5.15842531      4.96317451     10.60179429      3.96543621
   Si      1.47625998      4.18994000     12.97633603      4.07883303
   Si      8.14908707      2.18500343      7.57134278      3.89142796
   Si      7.23220364      1.84461632     10.36951752      3.98927119
   Si     13.97329480      9.63741961     11.03192056      4.09758766
   Si     17.39625371     12.38542428     13.14283606      3.92774648
   Si      8.23703234      7.00284216     10.72283931      3.99885281
   Si      9.49970687      2.08084791      9.61305387      4.08655287
   Si      2.79373934      5.04725797     10.44948071      3.92515788
   Si     11.02462388      4.22701098     11.90972840      4.03078144
   Si      6.68609074      5.98528982     12.19027013      4.06780305
   Si     13.17878602      8.74368907     14.28627879      3.95158719
