  175
Geometry Step: 0
    H     23.15731941     15.59518139      2.86223438      1.05273509
    H     19.30401514     15.61427487      2.86187140      1.05384463
    H     15.45071085     15.59518138      2.86223448      1.05273507
    H     11.59012844     15.59879202      2.86057617      1.06009597
    H     27.01790180     15.59879202      2.86057612      1.06009598
    H     21.23603400     12.26062894      2.86233330      1.05227431
    H     17.37199626     12.26062894      2.86233331      1.05227430
    H     13.52354653     12.25723491      2.86223442      1.05273507
    H      9.65200756     12.22659049      2.86151197      1.05463682
    H     25.08448372     12.25723491      2.86223440      1.05273508
    H     19.30401513      8.91427409      2.86233337      1.05227428
    H     15.43366329      8.91062870      2.86187141      1.05384461
    H     11.58482635      8.90303428      2.86269775      1.05114637
    H      7.71918878      8.90303429      2.86269780      1.05114637
    H     23.17436697      8.91062871      2.86187148      1.05384460
    H     17.37685087      5.58311607      2.86223447      1.05273505
    H     13.50266785      5.58123543      2.86269774      1.05114636
    H      9.65200758      5.57258830      2.86153973      1.05362860
    H      5.80134727      5.58123543      2.86269790      1.05114634
    H     21.23117937      5.58311609      2.86223455      1.05273504
    H     15.41454249      2.24558724      2.86151193      1.05463682
    H     11.56984906      2.23349511      2.86269774      1.05114638
    H      7.73416607      2.23349511      2.86269786      1.05114636
    H      3.88947263      2.24558724      2.86151209      1.05463679
    H     19.30401512      2.23794856      2.86057619      1.06009596
   Si     23.16481815     15.60324966      4.36424935      3.90912442
   Si     19.30401513     15.60324966      4.36424935      3.90957942
   Si     15.44321210     15.60324966      4.36424935      3.90912444
   Si     11.58240908     15.60324966      4.36424935      3.89924592
   Si     27.02562118     15.60324966      4.36424935      3.89924591
   Si     21.23441664     12.25969616      4.36424935      3.90786370
   Si     17.37361361     12.25969616      4.36424935      3.90786371
   Si     13.51281059     12.25969616      4.36424935      3.90912442
   Si      9.65200756     12.25969616      4.36424935      3.91785937
   Si     25.09521966     12.25969616      4.36424935      3.90912441
   Si     19.30401513      8.91614266      4.36424935      3.90786372
   Si     15.44321210      8.91614266      4.36424935      3.90957940
   Si     11.58240908      8.91614266      4.36424935      3.90958302
   Si      7.72160605      8.91614266      4.36424935      3.90958303
   Si     23.16481815      8.91614266      4.36424935      3.90957941
   Si     17.37361361      5.57258916      4.36424935      3.90912443
   Si     13.51281059      5.57258916      4.36424935      3.90958303
   Si      9.65200756      5.57258916      4.36424935      3.91165447
   Si      5.79120454      5.57258916      4.36424935      3.90958305
   Si     21.23441664      5.57258916      4.36424935      3.90912444
   Si     15.44321210      2.22903567      4.36424935      3.91785935
   Si     11.58240908      2.22903567      4.36424935      3.90958303
   Si      7.72160605      2.22903567      4.36424935      3.90958306
   Si      3.86080303      2.22903567      4.36424935      3.91785938
   Si     19.30401513      2.22903567      4.36424935      3.89924591
   Si     21.23441664     14.48873183      5.15233247      4.03619485
   Si     17.37361361     14.48873183      5.15233247      4.03619487
   Si     13.51281059     14.48873183      5.15233247      4.03681234
   Si      9.65200756     14.48873183      5.15233247      4.01853309
   Si     25.09521966     14.48873183      5.15233247      4.03681233
   Si     19.30401513     11.14517833      5.15233247      4.02369593
   Si     15.44321210     11.14517833      5.15233247      4.03619494
   Si     11.58240908     11.14517833      5.15233247      4.03554985
   Si      7.72160605     11.14517833      5.15233247      4.03554984
   Si     23.16481815     11.14517833      5.15233247      4.03619492
   Si     17.37361361      7.80162483      5.15233247      4.03619498
   Si     13.51281059      7.80162483      5.15233247      4.02020614
   Si      9.65200756      7.80162483      5.15233247      4.03560805
   Si      5.79120454      7.80162483      5.15233247      4.02020613
   Si     21.23441664      7.80162483      5.15233247      4.03619498
   Si     15.44321210      4.45807133      5.15233247      4.03554991
   Si     11.58240908      4.45807133      5.15233247      4.03560806
   Si      7.72160605      4.45807133      5.15233247      4.03560802
   Si      3.86080303      4.45807133      5.15233247      4.03554987
   Si     19.30401513      4.45807133      5.15233247      4.03681239
   Si     13.51281059      1.11451783      5.15233247      4.03554983
   Si      9.65200756      1.11451783      5.15233247      4.02020603
   Si      5.79120454      1.11451783      5.15233247      4.03554980
   Si      1.93040151      1.11451783      5.15233247      4.01853320
   Si     17.37361361      1.11451783      5.15233247      4.01853321
   Si     21.23441664     14.48873183      7.51658182      4.00906553
   Si     17.37361361     14.48873183      7.51658182      4.00906554
   Si     13.51281059     14.48873183      7.51658182      4.00394094
   Si      9.65200756     14.48873183      7.51658182      3.98428867
   Si     25.09521966     14.48873183      7.51658182      4.00394090
   Si     19.30401513     11.14517833      7.51658182      4.01836901
   Si     15.44321210     11.14517833      7.51658182      4.00906541
   Si     11.58240908     11.14517833      7.51658182      4.03598767
   Si      7.72160605     11.14517833      7.51658182      4.03598766
   Si     23.16481815     11.14517833      7.51658182      4.00906536
   Si     17.37361361      7.80162483      7.51658182      4.00906556
   Si     13.51281059      7.80162483      7.51658182      3.98904190
   Si      9.65200756      7.80162483      7.51658182      4.01033210
   Si      5.79120454      7.80162483      7.51658182      3.98904192
   Si     21.23441664      7.80162483      7.51658182      4.00906553
   Si     15.44321210      4.45807133      7.51658182      4.03598758
   Si     11.58240908      4.45807133      7.51658182      4.01033221
   Si      7.72160605      4.45807133      7.51658182      4.01033218
   Si      3.86080303      4.45807133      7.51658182      4.03598751
   Si     19.30401513      4.45807133      7.51658182      4.00394071
   Si     13.51281059      1.11451783      7.51658182      4.03598746
   Si      9.65200756      1.11451783      7.51658182      3.98904211
   Si      5.79120454      1.11451783      7.51658182      4.03598739
   Si      1.93040151      1.11451783      7.51658182      3.98428834
   Si     17.37361361      1.11451783      7.51658182      3.98428823
   Si     23.16464995     13.37411827      8.06390228      3.90147159
   Si     19.30401515     13.37494547      8.39787906      4.00766928
   Si     15.44338028     13.37411837      8.06390240      3.90147204
   Si     11.58278835     13.35204209      8.34760022      3.99248003
   Si      7.72122677     13.35204212      8.34760021      3.99248003
   Si     21.23504862     10.03029748      8.39787818      4.00766918
   Si     17.37298166     10.03029747      8.39787812      4.00766922
   Si     13.49552899     10.05948233      8.37893301      4.01941799
   Si      9.65200757     10.03301183      8.04746343      3.88103861
   Si      5.80848613     10.05948236      8.37893312      4.01941799
   Si     19.30401520      6.68730259      8.06390161      3.90147163
   Si     15.45953051      6.65773236      8.37893256      4.01941786
   Si     11.59367115      6.69361075      8.39758522      4.01347613
   Si      7.71034401      6.69361076      8.39758529      4.01347613
   Si      3.84448453      6.65773222      8.37893280      4.01941782
   Si     17.35460026      3.35497024      8.34760004      3.99248023
   Si     13.51484569      3.34238005      8.04746276      3.88103869
   Si      9.65200759      3.33055083      8.39758588      4.01347605
   Si      5.78916939      3.34238001      8.04746292      3.88103912
   Si      1.94941492      3.35497035      8.34760028      3.99248020
   Si     15.42381985      0.01076018      8.34760077      3.99248012
   Si     11.61600867      0.00055784      8.37893376      4.01941786
   Si      7.68800632      0.00055785      8.37893389      4.01941782
   Si      3.88019543      0.01076018      8.34760102      3.99248009
   Si     -0.00000007      0.00000204      8.57139725      4.29739883
   Si     23.11850936     13.34747809     10.33674039      4.04571901
   Si     19.30401557     13.35403757     10.84150987      3.91114973
   Si     15.48952092     13.34747791     10.33674128      4.04571912
   Si     11.91344802     12.81827537     10.67288177      3.93372284
   Si      7.39056660     12.81827581     10.67288175      3.93372264
   Si     21.21694193     10.04075299     10.84150820      3.91114897
   Si     17.39108839     10.04075252     10.84150813      3.91114917
   Si     13.15115815     10.67835474     10.70434874      3.96884874
   Si      9.65200753      9.97647099     10.31144290      4.04042058
   Si      6.15285688     10.67835517     10.70434884      3.96884855
   Si     19.30401498      6.74058270     10.33674070      4.04571914
   Si     15.82330616      6.05006301     10.70434797      3.96884875
   Si     11.56588520      6.67756701     10.83345774      3.91489303
   Si      7.73813053      6.67756740     10.83345795      3.91489325
   Si      3.48070868      6.05006329     10.70434823      3.96884899
   Si     17.05767321      3.90821238     10.67288115      3.93372278
   Si     13.46588113      3.37065090     10.31144157      4.04042047
   Si      9.65200820      3.36263526     10.83345909      3.91489402
   Si      5.83813394      3.37065090     10.31144463      4.04042017
   Si      2.24634103      3.90821262     10.67288129      3.93372305
   Si     14.79623590     -0.00871582     10.67288306      3.93372368
   Si     12.32415210     -0.01064578     10.70435056      3.96885007
   Si      6.97986345     -0.01064586     10.70435073      3.96885050
   Si      4.50777911     -0.00871604     10.67288322      3.93372415
   Si     21.38058876     14.48020356     11.50621043      4.05020970
   Si     17.22744171     14.48020297     11.50621084      4.05021021
   Si     13.65702557     14.40546859     11.49546516      4.06590077
   Si     24.95100470     14.40546931     11.49546452      4.06590033
   Si      9.65200732     12.09374533     11.45555371      4.05833677
   Si     19.30401528     11.14517805     11.90964464      4.24432810
   Si     15.37751110     11.27602936     11.50621131      4.05021174
   Si     11.50522895      9.04568460     11.47367435      4.04387495
   Si      7.79878632      9.04568501     11.47367450      4.04387496
   Si     23.23051917     11.27602958     11.50621101      4.05021114
   Si     17.45408367      7.67930145     11.50620917      4.05021069
   Si     13.58640580      5.44098236     11.47367441      4.04387548
   Si      9.65200810      5.57259254     11.90198875      4.24155222
   Si      5.71760942      5.44098164     11.47367558      4.04387560
   Si     21.15394600      7.67930182     11.50620928      4.05021059
   Si     15.29949208      2.31201598     11.45555334      4.05833553
   Si     11.73318559      2.23111022     11.47367437      4.04387408
   Si      7.57082939      2.23111075     11.47367540      4.04387420
   Si      4.00452373      2.31201664     11.45555464      4.05833559
   Si     19.30401452      4.62459699     11.49546391      4.06590159
   Si      5.78474488      3.33982641     12.86705932      3.92635890
   Si     13.51927032      3.33982649     12.86705851      3.92635909
   Si      9.65200767     10.03811913     12.86705764      3.92635854
   Si     19.30401479      6.68423459     12.90573691      3.91997491
   Si     15.44072189     13.37565258     12.90574049      3.91997560
   Si     23.16730841     13.37565300     12.90573996      3.91997514
