   61
Geometry Step: 0
    H     11.58240908      8.90630932      2.86193171      1.05061792
    H      7.71850805      8.91793037      2.86125925      1.05873252
    H     15.44631011      8.91793037      2.86125925      1.05264108
    H      9.66052267      5.57750442      2.86193170      1.05289181
    H      5.79120454      5.56194977      2.86140756      1.05575603
    H     13.50429548      5.57750442      2.86193170      1.05452785
    H      7.71239285      2.23435394      2.86140755      1.05136054
    H      3.87001622      2.23435394      2.86140755      1.05912072
    H     11.58240908      2.22545752      2.86125925      1.05984830
   Si     11.58240908      8.91614266      4.36424935      3.89443047
   Si      7.72160605      8.91614266      4.36424935      3.90033709
   Si     15.44321210      8.91614266      4.36424935      3.90394603
   Si      9.65200756      5.57258916      4.36424935      3.90698624
   Si      5.79120454      5.57258916      4.36424935      3.91356376
   Si     13.51281059      5.57258916      4.36424935      3.89876472
   Si      7.72160605      2.22903567      4.36424935      3.90674826
   Si      3.86080303      2.22903567      4.36424935      3.90143982
   Si     11.58240908      2.22903567      4.36424935      3.90429106
   Si      9.65200756      7.80162483      5.15233247      4.02812806
   Si      5.79120454      7.80162483      5.15233247      4.02977099
   Si     13.51281059      7.80162483      5.15233247      4.04501773
   Si      7.72160605      4.45807133      5.15233247      4.02873928
   Si      3.86080303      4.45807133      5.15233247      4.02387097
   Si     11.58240908      4.45807133      5.15233247      4.03261506
   Si      5.79120454      1.11451783      5.15233247      4.04421314
   Si      1.93040151      1.11451783      5.15233247      4.02997250
   Si      9.65200756      1.11451783      5.15233247      4.04362175
   Si      9.77983760      7.75977504      7.48948304      3.97423690
   Si      5.89360827      7.81970217      7.56651751      3.99903226
   Si     13.82592288      7.71645919      7.53599506      3.81069359
   Si      7.59385306      4.37159262      7.50652687      4.06881601
   Si      3.81549311      4.40000866      7.51768102      4.02089135
   Si     11.73064713      4.42599092      7.51036705      3.97786466
   Si      5.55002146      1.03662104      7.56031250      3.85109884
   Si      1.98607416      1.03358129      7.58796162      3.98084255
   Si      9.92048617      1.25622688      7.50840647      3.88634550
   Si     11.80308108      6.69343583      8.25461732      4.13684262
   Si      7.87909603      6.60369267      8.22764220      3.90736227
   Si      4.13149634      6.55024279      8.54350895      4.05954097
   Si      9.63397570      3.50489423      8.37090902      3.97832994
   Si      5.72060933      3.22788036      8.58150132      3.98186478
   Si      1.97886339      3.25369258      8.53109547      4.15044100
   Si      8.06080265     -0.03410306      8.24808224      4.08068763
   Si      3.80827896     -0.17332064      8.64318582      4.20050239
   Si      0.06839035     -0.02160928      8.55998463      4.15530642
   Si     12.36884999     10.05895061     11.50281687      3.96515477
   Si     10.05595196      5.98579636      9.70422109      3.82021354
   Si      2.97049595      8.61142653     11.19189708      3.99374448
   Si     10.91457428      6.25870039     11.91015247      4.02369936
   Si      7.45938533      5.78385205     10.58243223      4.09406687
   Si      1.85851100      6.42309587     11.57104911      3.96941735
   Si      8.63582149      3.49512041     10.55287375      4.06057547
   Si      6.53000498      2.42523924     10.89034257      3.93728762
   Si     13.21798563     10.32341625      8.84893866      4.04699123
   Si     14.15989331     10.03168147     13.12550371      4.03479177
   Si      5.07027640      5.00514936     10.34643106      3.87046876
   Si      8.77334010      4.87503327     12.49270529      3.95263931
   Si      3.51022645      4.54725464     12.04651231      4.03125959
   Si     11.27362320      8.42146932     12.88437448      3.99215869
   Si      6.12691873      4.11996554     12.59383767      3.99378334
   Si     13.52645219      7.73976743     13.54203219      4.06109445
