   61
Geometry Step: 0
    H     11.58240908      8.90630932      2.86193171      1.05581670
    H      7.71850805      8.91793037      2.86125925      1.05425955
    H     15.44631011      8.91793037      2.86125925      1.05828508
    H      9.66052267      5.57750442      2.86193170      1.05350111
    H      5.79120454      5.56194977      2.86140756      1.05421824
    H     13.50429548      5.57750442      2.86193170      1.05645148
    H      7.71239285      2.23435394      2.86140755      1.05755764
    H      3.87001622      2.23435394      2.86140755      1.05411238
    H     11.58240908      2.22545752      2.86125925      1.05852963
   Si     11.58240908      8.91614266      4.36424935      3.90573900
   Si      7.72160605      8.91614266      4.36424935      3.89972227
   Si     15.44321210      8.91614266      4.36424935      3.89697891
   Si      9.65200756      5.57258916      4.36424935      3.90334481
   Si      5.79120454      5.57258916      4.36424935      3.90159495
   Si     13.51281059      5.57258916      4.36424935      3.90590258
   Si      7.72160605      2.22903567      4.36424935      3.91039475
   Si      3.86080303      2.22903567      4.36424935      3.91014359
   Si     11.58240908      2.22903567      4.36424935      3.90791490
   Si      9.65200756      7.80162483      5.15233247      4.03808519
   Si      5.79120454      7.80162483      5.15233247      4.03822589
   Si     13.51281059      7.80162483      5.15233247      4.02635652
   Si      7.72160605      4.45807133      5.15233247      4.02714964
   Si      3.86080303      4.45807133      5.15233247      4.02453164
   Si     11.58240908      4.45807133      5.15233247      4.02058191
   Si      5.79120454      1.11451783      5.15233247      4.02182719
   Si      1.93040151      1.11451783      5.15233247      4.02935465
   Si      9.65200756      1.11451783      5.15233247      4.02836978
   Si      9.61527349      7.79492002      7.49856202      3.98162945
   Si      5.65415987      7.82436151      7.61943000      3.92256391
   Si     13.55877696      7.80580721      7.56289686      3.96733627
   Si      7.69404372      4.37532248      7.48333102      3.98030613
   Si      3.87045286      4.47214223      7.44943577      3.99792272
   Si     11.56544027      4.35797267      7.45486405      4.03718091
   Si      5.82237516      1.04185362      7.48267813      4.01397029
   Si      1.82781114      1.08423847      7.52064084      3.98848733
   Si      9.57946296      0.97694871      7.59533985      3.95110663
   Si     11.58782328      6.62033079      8.17721888      3.98818825
   Si      7.67989986      6.66940531      8.22045757      4.04716946
   Si      3.77561225      6.56994353      8.55834673      4.09416718
   Si      9.75074358      3.22943870      8.52031215      4.00739627
   Si      5.73105191      3.26857839      8.24806448      3.98632359
   Si      1.95337253      3.33255065      8.31355237      4.00440198
   Si      7.63665142     -0.05739224      8.59061803      4.16429008
   Si      3.82534392      0.03787375      8.20965431      3.95856862
   Si     -0.03965834      0.00024826      8.58524395      4.17023997
   Si     11.62555984      5.46077899     10.34344705      3.92002348
   Si      7.17817675      4.51169789     11.02837516      4.07924730
   Si      2.68638736      4.54743380     10.39706171      4.03079535
   Si      8.48909865      2.77962252     12.07423002      4.05850356
   Si      4.04041830      0.79940342     10.44000950      3.93312125
   Si      1.66270611      2.44389195     10.92801571      3.97753054
   Si      5.29820758     -1.71031018     10.82258977      4.03480222
   Si      3.21745536     -1.02564627     11.91367351      4.05777419
   Si      8.99815435      5.36686734      9.77865375      3.91382602
   Si     11.36025361      6.30203924     12.52800687      4.08031561
   Si      4.83243735      3.20522169     10.49746373      3.92463146
   Si      5.83253893      0.08097854     12.18028237      3.92793419
   Si      3.20943467      1.30593006     12.75836071      3.98981779
   Si     10.74767439      3.17260387     10.91283161      3.95555095
   Si      5.56335007      2.41471667     12.66806188      4.03465558
   Si      9.25326483      5.18911789     12.21214726      3.92127146
