   61
Geometry Step: 0
    H     11.58240908      8.90630932      2.86193171      1.05463456
    H      7.71850805      8.91793037      2.86125925      1.05747313
    H     15.44631011      8.91793037      2.86125925      1.05706329
    H      9.66052267      5.57750442      2.86193170      1.05494091
    H      5.79120454      5.56194977      2.86140756      1.05437314
    H     13.50429548      5.57750442      2.86193170      1.05497279
    H      7.71239285      2.23435394      2.86140755      1.05417773
    H      3.87001622      2.23435394      2.86140755      1.05432501
    H     11.58240908      2.22545752      2.86125925      1.05757393
   Si     11.58240908      8.91614266      4.36424935      3.90281544
   Si      7.72160605      8.91614266      4.36424935      3.89860705
   Si     15.44321210      8.91614266      4.36424935      3.90147944
   Si      9.65200756      5.57258916      4.36424935      3.90626012
   Si      5.79120454      5.57258916      4.36424935      3.90771179
   Si     13.51281059      5.57258916      4.36424935      3.90356375
   Si      7.72160605      2.22903567      4.36424935      3.90943369
   Si      3.86080303      2.22903567      4.36424935      3.90588270
   Si     11.58240908      2.22903567      4.36424935      3.89862207
   Si      9.65200756      7.80162483      5.15233247      4.03770768
   Si      5.79120454      7.80162483      5.15233247      4.03002384
   Si     13.51281059      7.80162483      5.15233247      4.02927547
   Si      7.72160605      4.45807133      5.15233247      4.03005254
   Si      3.86080303      4.45807133      5.15233247      4.02869322
   Si     11.58240908      4.45807133      5.15233247      4.03916727
   Si      5.79120454      1.11451783      5.15233247      4.02487297
   Si      1.93040151      1.11451783      5.15233247      4.03378739
   Si      9.65200756      1.11451783      5.15233247      4.03178021
   Si      9.42982671      7.54014244      7.51352653      4.00485529
   Si      5.61389317      7.62772957      7.62173510      3.96674857
   Si     13.39972397      7.59386104      7.49294869      4.00474579
   Si      7.52390465      4.22416018      7.47409830      4.02326584
   Si      3.65762667      4.26864315      7.45902564      4.02789449
   Si     11.37376656      4.18797140      7.49012210      4.00050226
   Si      5.66718516      0.81815648      7.44421702      4.02669275
   Si      1.73489633      0.85489216      7.52472749      3.98127455
   Si      9.52004599      0.83578887      7.58168405      3.97340701
   Si     11.43139152      6.44809177      8.09669601      3.94871802
   Si      7.48761098      6.37195879      8.42234694      4.00222282
   Si      3.63492415      6.40437519      8.45641986      4.01667828
   Si      9.39030614      3.07269883      8.32434605      3.99727623
   Si      5.54752974      3.05984975      8.13598099      3.92528160
   Si      1.74963564      3.09656709      8.26237388      4.00156064
   Si      7.51571679     -0.28553563      8.44211749      3.99967454
   Si      3.71633015     -0.26264208      8.27482066      4.01055991
   Si     -0.14906502     -0.20611623      8.59022527      4.18094883
   Si     11.42759934      6.06365284     10.33859993      3.99322380
   Si      7.52348953      5.43251506     10.68085976      3.96838151
   Si      2.95300646      5.54404378     10.72043619      3.96036806
   Si      8.72618734      3.36478420     10.62427763      3.95253066
   Si      5.06162070      2.40688880     10.26467077      4.01138779
   Si      1.89370026      3.37589481     10.63083956      3.94945566
   Si      6.63765469     -0.73138104     10.70559276      3.95277770
   Si      4.20847986     -0.61126296     10.62246401      3.96383552
   Si      9.39909867      7.00100684     11.23097347      4.04355111
   Si     13.00196191      7.16292157     11.94114217      4.06577048
   Si      5.19326652      4.54871985     11.42266386      4.03369541
   Si      6.96360964      1.67458874     11.45505690      4.06058311
   Si      3.22880382      1.50019856     11.68891947      4.02032155
   Si     11.05796358      3.95966752     11.39237549      4.07414150
   Si      5.14287570      2.61569678     12.86389393      3.97673312
   Si     10.90302536      5.98030723     12.80469798      3.96166448
