   61
Geometry Step: 0
    H     11.58240908      8.90630932      2.86193171      1.06033600
    H      7.71850805      8.91793037      2.86125925      1.05675922
    H     15.44631011      8.91793037      2.86125925      1.05505388
    H      9.66052267      5.57750442      2.86193170      1.05864609
    H      5.79120454      5.56194977      2.86140756      1.05413860
    H     13.50429548      5.57750442      2.86193170      1.05643709
    H      7.71239285      2.23435394      2.86140755      1.05665508
    H      3.87001622      2.23435394      2.86140755      1.05580338
    H     11.58240908      2.22545752      2.86125925      1.05382766
   Si     11.58240908      8.91614266      4.36424935      3.90446949
   Si      7.72160605      8.91614266      4.36424935      3.91192035
   Si     15.44321210      8.91614266      4.36424935      3.90006599
   Si      9.65200756      5.57258916      4.36424935      3.90730930
   Si      5.79120454      5.57258916      4.36424935      3.90533651
   Si     13.51281059      5.57258916      4.36424935      3.90375989
   Si      7.72160605      2.22903567      4.36424935      3.90716563
   Si      3.86080303      2.22903567      4.36424935      3.91006418
   Si     11.58240908      2.22903567      4.36424935      3.90361196
   Si      9.65200756      7.80162483      5.15233247      4.02085517
   Si      5.79120454      7.80162483      5.15233247      4.01865337
   Si     13.51281059      7.80162483      5.15233247      4.01859133
   Si      7.72160605      4.45807133      5.15233247      4.02688351
   Si      3.86080303      4.45807133      5.15233247      4.01342820
   Si     11.58240908      4.45807133      5.15233247      4.02340870
   Si      5.79120454      1.11451783      5.15233247      4.01059439
   Si      1.93040151      1.11451783      5.15233247      4.02081399
   Si      9.65200756      1.11451783      5.15233247      4.02580176
   Si      9.70280252      7.80279156      7.48081052      4.03710183
   Si      5.87309151      7.78375375      7.54829009      3.96787516
   Si     13.58056695      7.84997237      7.54940395      3.96838937
   Si      7.81330766      4.48104628      7.62721908      3.98021459
   Si      3.89907405      4.44219926      7.52746864      3.95866753
   Si     11.61209326      4.47064160      7.60597254      3.97640019
   Si      5.85142000      1.10403371      7.48763682      3.96608874
   Si      1.97060203      1.11119181      7.55684236      3.94825914
   Si      9.60672549      1.20378006      7.61957925      3.96909674
   Si     11.63566504      6.81527400      8.46959791      4.05640563
   Si      7.82756393      6.74296699      8.49195482      4.00532696
   Si      3.92551484      6.67844205      8.30686183      4.07538826
   Si      9.72993883      3.43944781      8.66415380      4.00258506
   Si      5.84557079      3.32724149      8.25720247      4.05683561
   Si      1.97842097      3.33664937      8.36998133      4.09983141
   Si      7.70452053      0.01764148      8.47836820      4.14054118
   Si      3.98272532     -0.02531244      8.37180951      4.03889238
   Si     -0.01129471      0.01506462      8.19313632      4.02892959
   Si     10.04708315      4.22268189     11.29102139      4.02317327
   Si      6.78352790      4.13744433     12.91874159      3.97163503
   Si      2.07626265      4.04651627     13.16480430      3.98277309
   Si      7.67844852      1.96899442     12.81265155      3.95640913
   Si      4.06182832      1.61990458     12.30677613      4.08430499
   Si      0.68150529      2.11821733     13.43192474      3.93475530
   Si      5.01014361     -1.30966613     10.28608616      3.92528182
   Si      2.78328344     -2.44772455     10.69395596      3.98320879
   Si      8.41518011      5.74508394     12.17632204      4.00133010
   Si     11.44388236      5.12679920     13.21549422      3.98572592
   Si      4.49270019      3.70906898     13.61486595      3.95096785
   Si      5.93819770      0.18640134     12.26268018      3.96629779
   Si      2.46747433      0.40431098     13.70306146      4.08857266
   Si      9.94331694      2.84097878     13.29308644      4.04246433
   Si      4.09641719      1.79873109     14.95261995      4.02020922
   Si     10.17301602      4.64571079     17.12085488      3.96567066
