  347
Geometry Step: 0
    H     34.73692699     22.28266733      2.86205263      1.05351070
    H     30.88067284     22.30130908      2.86177843      1.05419990
    H     27.02562115     22.28245252      2.86232136      1.05218901
    H     23.17056938     22.30130903      2.86177852      1.05419985
    H     19.31431535     22.28266741      2.86205266      1.05351061
    H     15.45220683     22.28516269      2.86037566      1.06084414
    H     38.59903569     22.28516271      2.86037568      1.06084418
    H     32.81681403     18.94679537      2.86212463      1.05300125
    H     28.95106002     18.94843803      2.86232230      1.05221185
    H     25.10018233     18.94843805      2.86232240      1.05221185
    H     21.23442824     18.94679547      2.86212476      1.05300122
    H     17.38542204     18.94172625      2.86205252      1.05351053
    H     13.51281062     18.90943747      2.86139168      1.05541303
    H     36.66582036     18.94172614      2.86205251      1.05351057
    H     30.88535953     15.59813290      2.86232227      1.05221169
    H     27.02562120     15.60324869      2.86164593      1.05445215
    H     23.16588279     15.59813297      2.86232246      1.05221176
    H     19.29740488     15.59279134      2.86177836      1.05419968
    H     15.44700479     15.58608124      2.86254772      1.05187620
    H     11.57861639     15.58608121      2.86254777      1.05187620
    H     34.75383741     15.59279120      2.86177834      1.05419964
    H     28.95992073     12.26317499      2.86232236      1.05221167
    H     25.09132168     12.26317494      2.86232245      1.05221174
    H     21.24126099     12.26364679      2.86232131      1.05218879
    H     17.36875158     12.26224147      2.86263704      1.05111930
    H     13.51281049     12.25335677      2.86154950      1.05402827
    H      9.65686960     12.26224142      2.86263725      1.05111924
    H     32.80998132     12.26364678      2.86232131      1.05218869
    H     27.02562122      8.91615521      2.86212477      1.05300122
    H     23.15245667      8.91564586      2.86177844      1.05419978
    H     19.30378923      8.91065801      2.86263711      1.05111941
    H     15.44544477      8.91743079      2.86255293      1.05135573
    H     11.58017632      8.91743079      2.86255315      1.05135568
    H      7.72183195      8.91065799      2.86263740      1.05111932
    H     30.89878566      8.91564589      2.86177849      1.05419970
    H     25.09672806      5.58535296      2.86205266      1.05351069
    H     21.22144566      5.58445669      2.86254791      1.05187644
    H     17.36812427      5.57575747      2.86154962      1.05402844
    H     13.51281055      5.57001007      2.86255314      1.05135577
    H      9.65749671      5.57575748      2.86154987      1.05402836
    H      5.80417551      5.58445661      2.86254808      1.05187630
    H     28.95451448      5.58535292      2.86205268      1.05351063
    H     23.13245892      2.24771792      2.86139187      1.05541327
    H     19.28725133      2.23433375      2.86254796      1.05187650
    H     15.44784819      2.23197221      2.86263729      1.05111955
    H     11.57777293      2.23197220      2.86263737      1.05111952
    H      7.73836975      2.23433377      2.86254807      1.05187636
    H      3.89316233      2.24771792      2.86139189      1.05541314
    H     27.02562125      2.23942115      2.86037571      1.06084423
   Si     34.74722723     22.29035666      4.36424935      3.90871695
   Si     30.88642420     22.29035666      4.36424935      3.90932564
   Si     27.02562118     22.29035666      4.36424935      3.90853661
   Si     23.16481815     22.29035666      4.36424935      3.90932563
   Si     19.30401513     22.29035666      4.36424935      3.90871701
   Si     15.44321210     22.29035666      4.36424935      3.89948035
   Si     38.60803025     22.29035666      4.36424935      3.89948030
   Si     32.81682571     18.94680316      4.36424935      3.90776795
   Si     28.95602269     18.94680316      4.36424935      3.90838880
   Si     25.09521966     18.94680316      4.36424935      3.90838876
   Si     21.23441664     18.94680316      4.36424935      3.90776792
   Si     17.37361361     18.94680316      4.36424935      3.90871715
   Si     13.51281059     18.94680316      4.36424935      3.91744877
   Si     36.67762874     18.94680316      4.36424935      3.90871712
   Si     30.88642420     15.60324966      4.36424935      3.90838891
   Si     27.02562118     15.60324966      4.36424935      3.90851293
   Si     23.16481815     15.60324966      4.36424935      3.90838879
   Si     19.30401513     15.60324966      4.36424935      3.90932578
   Si     15.44321210     15.60324966      4.36424935      3.90886960
   Si     11.58240908     15.60324966      4.36424935      3.90886957
   Si     34.74722723     15.60324966      4.36424935      3.90932577
   Si     28.95602269     12.25969616      4.36424935      3.90838890
   Si     25.09521966     12.25969616      4.36424935      3.90838882
   Si     21.23441664     12.25969616      4.36424935      3.90853679
   Si     17.37361361     12.25969616      4.36424935      3.90964195
   Si     13.51281059     12.25969616      4.36424935      3.91016229
   Si      9.65200756     12.25969616      4.36424935      3.90964188
   Si     32.81682571     12.25969616      4.36424935      3.90853682
   Si     27.02562118      8.91614266      4.36424935      3.90776799
   Si     23.16481815      8.91614266      4.36424935      3.90932579
   Si     19.30401513      8.91614266      4.36424935      3.90964198
   Si     15.44321210      8.91614266      4.36424935      3.90878377
   Si     11.58240908      8.91614266      4.36424935      3.90878369
   Si      7.72160605      8.91614266      4.36424935      3.90964188
   Si     30.88642420      8.91614266      4.36424935      3.90932578
   Si     25.09521966      5.57258916      4.36424935      3.90871699
   Si     21.23441664      5.57258916      4.36424935      3.90886953
   Si     17.37361361      5.57258916      4.36424935      3.91016202
   Si     13.51281059      5.57258916      4.36424935      3.90878365
   Si      9.65200756      5.57258916      4.36424935      3.91016201
   Si      5.79120454      5.57258916      4.36424935      3.90886953
   Si     28.95602269      5.57258916      4.36424935      3.90871702
   Si     23.16481815      2.22903567      4.36424935      3.91744866
   Si     19.30401513      2.22903567      4.36424935      3.90886950
   Si     15.44321210      2.22903567      4.36424935      3.90964189
   Si     11.58240908      2.22903567      4.36424935      3.90964186
   Si      7.72160605      2.22903567      4.36424935      3.90886953
   Si      3.86080303      2.22903567      4.36424935      3.91744872
   Si     27.02562118      2.22903567      4.36424935      3.89948030
   Si     32.81682571     21.17583883      5.15233247      4.03635712
   Si     28.95602269     21.17583883      5.15233247      4.03704682
   Si     25.09521966     21.17583883      5.15233247      4.03704694
   Si     21.23441664     21.17583883      5.15233247      4.03635751
   Si     17.37361361     21.17583883      5.15233247      4.03667333
   Si     13.51281059     21.17583883      5.15233247      4.01830430
   Si     36.67762874     21.17583883      5.15233247      4.03667298
   Si     30.88642420     17.83228533      5.15233247      4.02374007
   Si     27.02562118     17.83228533      5.15233247      4.03591929
   Si     23.16481815     17.83228533      5.15233247      4.02374004
   Si     19.30401513     17.83228533      5.15233247      4.03635760
   Si     15.44321210     17.83228533      5.15233247      4.03585349
   Si     11.58240908     17.83228533      5.15233247      4.03585347
   Si     34.74722723     17.83228533      5.15233247      4.03635747
   Si     28.95602269     14.48873183      5.15233247      4.03592002
   Si     25.09521966     14.48873183      5.15233247      4.03591976
   Si     21.23441664     14.48873183      5.15233247      4.03704741
   Si     17.37361361     14.48873183      5.15233247      4.02080789
   Si     13.51281059     14.48873183      5.15233247      4.03684512
   Si      9.65200756     14.48873183      5.15233247      4.02080797
   Si     32.81682571     14.48873183      5.15233247      4.03704781
   Si     27.02562118     11.14517833      5.15233247      4.02374019
   Si     23.16481815     11.14517833      5.15233247      4.03704728
   Si     19.30401513     11.14517833      5.15233247      4.04015398
   Si     15.44321210     11.14517833      5.15233247      4.03666203
   Si     11.58240908     11.14517833      5.15233247      4.03666203
   Si      7.72160605     11.14517833      5.15233247      4.04015434
   Si     30.88642420     11.14517833      5.15233247      4.03704780
   Si     25.09521966      7.80162483      5.15233247      4.03635727
   Si     21.23441664      7.80162483      5.15233247      4.02080751
   Si     17.37361361      7.80162483      5.15233247      4.03666168
   Si     13.51281059      7.80162483      5.15233247      4.02000799
   Si      9.65200756      7.80162483      5.15233247      4.03666192
   Si      5.79120454      7.80162483      5.15233247      4.02080793
   Si     28.95602269      7.80162483      5.15233247      4.03635753
   Si     23.16481815      4.45807133      5.15233247      4.03585235
   Si     19.30401513      4.45807133      5.15233247      4.03684359
   Si     15.44321210      4.45807133      5.15233247      4.03666096
   Si     11.58240908      4.45807133      5.15233247      4.03666120
   Si      7.72160605      4.45807133      5.15233247      4.03684423
   Si      3.86080303      4.45807133      5.15233247      4.03585297
   Si     27.02562118      4.45807133      5.15233247      4.03667301
   Si     21.23441664      1.11451783      5.15233247      4.03585227
   Si     17.37361361      1.11451783      5.15233247      4.02080731
   Si     13.51281059      1.11451783      5.15233247      4.04015346
   Si      9.65200756      1.11451783      5.15233247      4.02080765
   Si      5.79120454      1.11451783      5.15233247      4.03585291
   Si      1.93040151      1.11451783      5.15233247      4.01830440
   Si     25.09521966      1.11451783      5.15233247      4.01830424
   Si     32.81682571     21.17583883      7.51658182      4.00753866
   Si     28.95602269     21.17583883      7.51658182      4.01338134
   Si     25.09521966     21.17583883      7.51658182      4.01338119
   Si     21.23441664     21.17583883      7.51658182      4.00753845
   Si     17.37361361     21.17583883      7.51658182      4.00344660
   Si     13.51281059     21.17583883      7.51658182      3.98580881
   Si     36.67762874     21.17583883      7.51658182      4.00344653
   Si     30.88642420     17.83228533      7.51658182      4.02040516
   Si     27.02562118     17.83228533      7.51658182      4.01291941
   Si     23.16481815     17.83228533      7.51658182      4.02040472
   Si     19.30401513     17.83228533      7.51658182      4.00753889
   Si     15.44321210     17.83228533      7.51658182      4.03514376
   Si     11.58240908     17.83228533      7.51658182      4.03514365
   Si     34.74722723     17.83228533      7.51658182      4.00753894
   Si     28.95602269     14.48873183      7.51658182      4.01292010
   Si     25.09521966     14.48873183      7.51658182      4.01291961
   Si     21.23441664     14.48873183      7.51658182      4.01338197
   Si     17.37361361     14.48873183      7.51658182      3.99074594
   Si     13.51281059     14.48873183      7.51658182      4.00834107
   Si      9.65200756     14.48873183      7.51658182      3.99074578
   Si     32.81682571     14.48873183      7.51658182      4.01338219
   Si     27.02562118     11.14517833      7.51658182      4.02040514
   Si     23.16481815     11.14517833      7.51658182      4.01338182
   Si     19.30401513     11.14517833      7.51658182      4.03213150
   Si     15.44321210     11.14517833      7.51658182      4.01277620
   Si     11.58240908     11.14517833      7.51658182      4.01277566
   Si      7.72160605     11.14517833      7.51658182      4.03213064
   Si     30.88642420     11.14517833      7.51658182      4.01338189
   Si     25.09521966      7.80162483      7.51658182      4.00753867
   Si     21.23441664      7.80162483      7.51658182      3.99074563
   Si     17.37361361      7.80162483      7.51658182      4.01277583
   Si     13.51281059      7.80162483      7.51658182      4.02711066
   Si      9.65200756      7.80162483      7.51658182      4.01277487
   Si      5.79120454      7.80162483      7.51658182      3.99074544
   Si     28.95602269      7.80162483      7.51658182      4.00753851
   Si     23.16481815      4.45807133      7.51658182      4.03514311
   Si     19.30401513      4.45807133      7.51658182      4.00834046
   Si     15.44321210      4.45807133      7.51658182      4.01277526
   Si     11.58240908      4.45807133      7.51658182      4.01277484
   Si      7.72160605      4.45807133      7.51658182      4.00833991
   Si      3.86080303      4.45807133      7.51658182      4.03514275
   Si     27.02562118      4.45807133      7.51658182      4.00344596
   Si     21.23441664      1.11451783      7.51658182      4.03514285
   Si     17.37361361      1.11451783      7.51658182      3.99074549
   Si     13.51281059      1.11451783      7.51658182      4.03213001
   Si      9.65200756      1.11451783      7.51658182      3.99074546
   Si      5.79120454      1.11451783      7.51658182      4.03514260
   Si      1.93040151      1.11451783      7.51658182      3.98580823
   Si     25.09521966      1.11451783      7.51658182      3.98580816
   Si     34.74711196     20.06125584      8.07196208      3.90811018
   Si     30.88918643     20.06263499      8.39552174      4.00678388
   Si     27.02562116     20.06071237      8.04364378      3.87955084
   Si     23.16205595     20.06263496      8.39552065      4.00678361
   Si     19.30413044     20.06125591      8.07195747      3.90811038
   Si     15.44312874     20.04023508      8.34598535      3.99098667
   Si     11.58249224     20.04023495      8.34598556      3.99098661
   Si     32.81934334     16.71950524      8.39551992      4.00678457
   Si     28.96853165     16.72499157      8.39678642      4.00924796
   Si     25.08271061     16.72499137      8.39678625      4.00924766
   Si     21.23189936     16.71950539      8.39551992      4.00678421
   Si     17.35636809     16.74784737      8.37913768      4.01881152
   Si     13.51281049     16.72051796      8.05155896      3.88497500
   Si      9.66925307     16.74784687      8.37913699      4.01881137
   Si     30.88589584     13.37452039      8.04363597      3.87955625
   Si     27.02562095     13.35977165      8.39678558      4.00924813
   Si     23.16534662     13.37452047      8.04364087      3.87955478
   Si     19.31810218     13.34848053      8.36962185      4.01537645
   Si     15.45505386     13.38282559      8.39456972      4.01286687
   Si     11.57056659     13.38282498      8.39456842      4.01286639
   Si      7.70751948     13.34847962      8.36961963      4.01537642
   Si     28.95577825     10.02761423      8.39551886      4.00678396
   Si     25.09546439     10.02761442      8.39551995      4.00678388
   Si     21.21917252     10.05572941      8.36962306      4.01537617
   Si     17.37443971     10.03113880      8.03276981      3.87501408
   Si     13.51280976     10.02765155      8.39493704      4.00706985
   Si      9.65118130     10.03113875      8.03276257      3.87501264
   Si      5.80644945     10.05572897      8.36961935      4.01537599
   Si     27.02562126      6.68724160      8.07195939      3.90810792
   Si     23.18224403      6.65713394      8.37913946      4.01881078
   Si     19.31739257      6.69305868      8.39457290      4.01286620
   Si     15.44060458      6.68861369      8.39493903      4.00706961
   Si     11.58501543      6.68861397      8.39493660      4.00706909
   Si      7.70822883      6.69305927      8.39456827      4.01286523
   Si      3.84337800      6.65713449      8.37913620      4.01881058
   Si     25.07691517      3.35402669      8.34598676      3.99098637
   Si     21.23679718      3.34218050      8.05156977      3.88496968
   Si     17.37514915      3.32899472      8.39457329      4.01286543
   Si     13.51281046      3.34260110      8.03276993      3.87500923
   Si      9.65047176      3.32899494      8.39456997      4.01286494
   Si      5.78882399      3.34218061      8.05155937      3.88496998
   Si      1.94870635      3.35402686      8.34598542      3.99098649
   Si     23.14659732      0.01061793      8.34598724      3.99098651
   Si     19.33868686     -0.00010222      8.37914080      4.01881056
   Si     15.41388076      0.00066999      8.36962409      4.01537563
   Si     11.61173988      0.00067002      8.36962260      4.01537547
   Si      7.68693478     -0.00010199      8.37913823      4.01881050
   Si      3.87902396      0.01061824      8.34598570      3.99098668
   Si     -0.00000005      0.00000223      8.57038409      4.29589851
   Si     34.70493690     20.03690236     10.34654165      4.04601105
   Si     30.91403175     20.05654033     10.83684745      3.90944255
   Si     27.02562005     20.01326947     10.30662672      4.03957525
   Si     23.13720948     20.05654240     10.83684500      3.90944228
   Si     19.34630590     20.03690499     10.34653880      4.04601123
   Si     15.77044244     19.51468320     10.67090856      3.93322701
   Si     11.25517978     19.51468095     10.67090909      3.93322676
   Si     32.82649193     16.74406613     10.83684357      3.90944367
   Si     29.07264978     16.78510363     10.83994523      3.94608130
   Si     24.97859115     16.78510375     10.83994480      3.94607997
   Si     21.22475210     16.74406868     10.83684303      3.90944242
   Si     17.00623530     17.37777576     10.69968894      3.96680168
   Si     13.51281041     16.66951238     10.31599151      4.04106766
   Si     10.01938702     17.37777359     10.69968832      3.96680156
   Si     30.84481406     13.39823864     10.30662321      4.03957875
   Si     27.02562057     13.23954594     10.83994420      3.94608180
   Si     23.20643031     13.39824111     10.30662326      4.03957749
   Si     19.66686788     12.76894135     10.69389332      3.97698338
   Si     15.42987977     13.39373562     10.82757393      3.91323306
   Si     11.59573600     13.39373369     10.82757103      3.91323256
   Si      7.35875534     12.76893628     10.69388849      3.97698359
   Si     28.93808245     10.00914541     10.83684226      3.90944333
   Si     25.11316418     10.00914760     10.83684416      3.90944235
   Si     20.89165744     10.64754146     10.69389416      3.97698277
   Si     17.33850503     10.01039327     10.28723251      4.03462824
   Si     13.51280577     10.16676078     10.82583890      3.94781615
   Si      9.68711330     10.01039127     10.28722657      4.03462485
   Si      6.13396694     10.64753728     10.69388823      3.97698314
   Si     27.02562367      6.73594494     10.34654055      4.04601084
   Si     23.55271520      6.03894703     10.69969246      3.96679905
   Si     19.31425649      6.66580255     10.82757989      3.91323075
   Si     15.56107341      6.61905994     10.82584309      3.94781538
   Si     11.46454081      6.61906149     10.82583778      3.94781386
   Si      7.71136415      6.66580495     10.82757033      3.91322980
   Si      3.47291144      6.03894744     10.69968721      3.96679974
   Si     24.78543138      3.90026343     10.67091195      3.93322460
   Si     21.19262834      3.36768356     10.31599548      4.04106390
   Si     17.39718500      3.34533836     10.82758100      3.91323076
   Si     13.51280744      3.38409599     10.28723501      4.03462375
   Si      9.62843362      3.34534041     10.82757433      3.91323031
   Si      5.83299475      3.36768487     10.31599026      4.04106327
   Si      2.24019534      3.90026429     10.67090833      3.93322498
   Si     22.52780271     -0.01006846     10.67091386      3.93322603
   Si     20.05928749     -0.01184471     10.69969500      3.96680027
   Si     14.73760020     -0.01159977     10.69389697      3.97698274
   Si     12.28801559     -0.01159920     10.69389586      3.97698290
   Si      6.96633547     -0.01184227     10.69969038      3.96680107
   Si      4.49782055     -0.01006612     10.67090971      3.93322667
   Si     32.97864035     21.18033074     11.52310746      4.06045208
   Si     28.80332435     21.14355479     11.46120713      4.04130632
   Si     25.24791533     21.14355519     11.46120507      4.04130588
   Si     21.07260211     21.18033421     11.52310173      4.06045169
   Si     17.51263664     21.09557434     11.50091009      4.06958395
   Si     36.53860729     21.09557061     11.50091443      4.06958367
   Si     13.51281111     18.78867093     11.45546840      4.06033622
   Si     30.95168912     17.86996101     11.91895151      4.25148443
   Si     27.02562011     17.92934840     11.43770256      4.01829503
   Si     23.09955322     17.86996435     11.91894861      4.25148491
   Si     19.21921561     17.97017132     11.52310224      4.06045369
   Si     15.37046413     15.75215665     11.48221214      4.05037096
   Si     11.65515631     15.75215376     11.48221022      4.05037035
   Si     34.83202872     17.97016757     11.52310517      4.06045461
   Si     29.04008569     14.44019684     11.43769672      4.01830287
   Si     25.01115828     14.44019900     11.43769926      4.01830118
   Si     21.33872204     14.37263514     11.46120251      4.04131300
   Si     17.43377921     12.11337447     11.43567039      4.03988857
   Si     13.51280602     12.33577840     11.90726062      4.24818548
   Si      9.59184037     12.11336909     11.43566007      4.03988398
   Si     32.71252436     14.37262996     11.46119918      4.04131563
   Si     27.02562406     11.06981952     11.91894952      4.25148468
   Si     23.11642673     11.29356030     11.46120493      4.04131299
   Si     19.20737558      9.04141636     11.43567254      4.03988668
   Si     15.53217716      8.96751440     11.41301244      4.01685505
   Si     11.49343516      8.96751329     11.41300362      4.01685017
   Si      7.81824614      9.04141391     11.43565935      4.03988209
   Si     30.93482114     11.29355687     11.46119955      4.04131518
   Si     25.17223481      7.65924681     11.52310499      4.06045061
   Si     21.32700015      5.43513878     11.48222166      4.05036302
   Si     17.43949789      5.53455439     11.90726854      4.24818313
   Si     13.51280520      5.46986114     11.41301232      4.01684597
   Si      9.58611732      5.53455622     11.90725808      4.24818545
   Si      5.69862541      5.43513925     11.48220899      4.05036143
   Si     28.87901484      7.65924533     11.52310219      4.06045113
   Si     23.02787245      2.30810548     11.45547514      4.06032788
   Si     19.46934701      2.21758804     11.48222138      4.05036074
   Si     15.28640119      2.25009905     11.43567246      4.03987778
   Si     11.73921266      2.25009944     11.43566958      4.03987779
   Si      7.55627389      2.21759079     11.48221063      4.05035975
   Si      3.99775330      2.30810752     11.45546685      4.06032778
   Si     27.02562520      4.61860233     11.50091295      4.06958290
   Si      5.77238731      3.33269358     12.87941775      3.92380815
   Si     13.51280530      3.35420710     12.81204178      3.90128915
   Si     21.25323773      3.33268978     12.87943159      3.92380630
   Si      9.66122799     10.02533634     12.81202562      3.90129640
   Si     17.36438813     10.02533953     12.81204330      3.90129831
   Si     13.51280923     16.73949472     12.87941987      3.92381687
   Si     27.02562631      6.66879617     12.93209134      3.91806323
   Si     23.17874749     13.38226007     12.83304951      3.89588518
   Si     30.87249842     13.38225561     12.83304570      3.89588866
   Si     19.28815258     20.07048059     12.93208951      3.91806765
   Si     27.02561910     20.04523632     12.83305464      3.89587824
   Si     34.76309153     20.07047568     12.93209585      3.91806662
