   61
Geometry Step: 0
    H     11.58240908      8.90630932      2.86193171      1.05203007
    H      7.71850805      8.91793037      2.86125925      1.05685945
    H     15.44631011      8.91793037      2.86125925      1.05432114
    H      9.66052267      5.57750442      2.86193170      1.05597022
    H      5.79120454      5.56194977      2.86140756      1.05525429
    H     13.50429548      5.57750442      2.86193170      1.05461631
    H      7.71239285      2.23435394      2.86140755      1.05821040
    H      3.87001622      2.23435394      2.86140755      1.05627157
    H     11.58240908      2.22545752      2.86125925      1.05814200
   Si     11.58240908      8.91614266      4.36424935      3.90241712
   Si      7.72160605      8.91614266      4.36424935      3.91085409
   Si     15.44321210      8.91614266      4.36424935      3.90399045
   Si      9.65200756      5.57258916      4.36424935      3.89880636
   Si      5.79120454      5.57258916      4.36424935      3.90541460
   Si     13.51281059      5.57258916      4.36424935      3.90514563
   Si      7.72160605      2.22903567      4.36424935      3.90574874
   Si      3.86080303      2.22903567      4.36424935      3.90824740
   Si     11.58240908      2.22903567      4.36424935      3.89669138
   Si      9.65200756      7.80162483      5.15233247      4.03042917
   Si      5.79120454      7.80162483      5.15233247      4.02714517
   Si     13.51281059      7.80162483      5.15233247      4.03054595
   Si      7.72160605      4.45807133      5.15233247      4.03044783
   Si      3.86080303      4.45807133      5.15233247      4.02044065
   Si     11.58240908      4.45807133      5.15233247      4.03579408
   Si      5.79120454      1.11451783      5.15233247      4.02882956
   Si      1.93040151      1.11451783      5.15233247      4.02458177
   Si      9.65200756      1.11451783      5.15233247      4.03756081
   Si      9.55022434      7.90703192      7.47293028      4.02950272
   Si      5.74820093      7.88452844      7.48607960      4.00277638
   Si     13.48045586      7.85010051      7.55047134      3.99431973
   Si      7.73141942      4.46584361      7.53965393      3.99857370
   Si      3.71715744      4.53109965      7.48164061      4.02430242
   Si     11.42284181      4.48100050      7.61917515      3.93805146
   Si      5.73655736      1.25311743      7.48114737      4.02706577
   Si      1.80675200      1.21794800      7.50104677      3.99604335
   Si      9.61292215      1.24291775      7.59581306      3.97479279
   Si     11.47494539      6.79384017      8.28431091      3.97396466
   Si      7.65062903      6.71550191      8.31392920      3.97258470
   Si      3.87325487      6.72917313      8.37525965      4.03284262
   Si      9.55161469      3.39767910      8.68705341      4.19625641
   Si      5.68589762      3.49583744      8.36830424      3.95875506
   Si      1.82863565      3.41793360      8.49697443      4.09550169
   Si      7.62267949      0.07473934      8.28314527      3.96780126
   Si      3.78651026      0.15415434      8.22013331      4.00599937
   Si     -0.05874665      0.04403576      8.38156838      4.00962598
   Si     12.51738520      9.64679443     10.44558790      3.94945271
   Si      9.73266760      9.79451901     10.58224690      3.93256164
   Si      5.36730774      5.72109731     10.04257774      3.96020998
   Si     11.03835956      7.57071874     10.52119921      3.95070672
   Si      8.47191444      6.44382448     10.56134561      4.04484675
   Si      4.50475132      4.77747287     12.04994322      4.10898250
   Si      5.94963168      3.03220872     10.89516236      4.05791121
   Si      6.79177491      5.74894685     12.24093759      3.88194678
   Si     11.12340364     10.92323723     12.20034087      4.00518444
   Si     17.22229724      9.59266706     10.74062777      4.03619491
   Si      7.70850209      8.62936258     11.19683011      4.03001543
   Si     10.63508395      8.12299219     12.90846096      3.95318840
   Si      3.73223917      2.40898613     10.16232813      3.86899998
   Si     13.01166482      7.72356477     12.14503383      4.05292926
   Si      8.18086234      7.51323353     13.25208793      4.04005004
   Si     13.31132787     10.03811571     12.72513823      4.02329300
