   61
Geometry Step: 0
    H     11.58240908      8.90630932      2.86193171      1.05440733
    H      7.71850805      8.91793037      2.86125925      1.05729631
    H     15.44631011      8.91793037      2.86125925      1.05607856
    H      9.66052267      5.57750442      2.86193170      1.05481368
    H      5.79120454      5.56194977      2.86140756      1.05445870
    H     13.50429548      5.57750442      2.86193170      1.05417676
    H      7.71239285      2.23435394      2.86140755      1.05402626
    H      3.87001622      2.23435394      2.86140755      1.05445335
    H     11.58240908      2.22545752      2.86125925      1.05634014
   Si     11.58240908      8.91614266      4.36424935      3.90917154
   Si      7.72160605      8.91614266      4.36424935      3.90322062
   Si     15.44321210      8.91614266      4.36424935      3.89279565
   Si      9.65200756      5.57258916      4.36424935      3.90963161
   Si      5.79120454      5.57258916      4.36424935      3.90671165
   Si     13.51281059      5.57258916      4.36424935      3.90851789
   Si      7.72160605      2.22903567      4.36424935      3.90453312
   Si      3.86080303      2.22903567      4.36424935      3.91239873
   Si     11.58240908      2.22903567      4.36424935      3.89949382
   Si      9.65200756      7.80162483      5.15233247      4.03117510
   Si      5.79120454      7.80162483      5.15233247      4.04337428
   Si     13.51281059      7.80162483      5.15233247      4.03665006
   Si      7.72160605      4.45807133      5.15233247      4.02921961
   Si      3.86080303      4.45807133      5.15233247      4.03194275
   Si     11.58240908      4.45807133      5.15233247      4.03120970
   Si      5.79120454      1.11451783      5.15233247      4.02581949
   Si      1.93040151      1.11451783      5.15233247      4.02675178
   Si      9.65200756      1.11451783      5.15233247      4.03705785
   Si      9.63832345      7.85183209      7.50691790      3.99822629
   Si      5.87024933      7.87926868      7.64380204      3.98030878
   Si     13.54786207      7.87025966      7.49564549      3.99375083
   Si      7.79515302      4.56671574      7.50973264      4.03773900
   Si      3.87152978      4.51306695      7.44019105      4.00775155
   Si     11.62817115      4.51554387      7.47752645      3.99214213
   Si      5.79757566      1.14449387      7.45083201      4.02683688
   Si      1.92375762      1.10312303      7.54689221      3.96886632
   Si      9.73075840      1.16311547      7.59753636      3.97424103
   Si     11.59646296      6.75546963      8.16912635      3.95924541
   Si      7.81561581      6.73840383      8.45496864      3.97900581
   Si      3.88671431      6.70959122      8.27207959      3.99955642
   Si      9.70946006      3.45337892      8.37834385      4.00997865
   Si      5.82910421      3.40183622      8.11468057      3.94598577
   Si      1.97443609      3.38043153      8.25030227      3.99781604
   Si      7.71995612      0.06776171      8.31467149      4.00935807
   Si      3.91639721      0.03651065      8.35321557      4.00469975
   Si      0.04692642      0.06645533      8.60948078      4.19463473
   Si     11.62439973      6.73290835     10.48255505      4.02854964
   Si      8.22154660      6.16595662     10.72093984      3.96165281
   Si      3.64064103      5.93889776     10.47209231      3.95906657
   Si      9.69959538      4.16020275     10.71762749      3.94265188
   Si      6.09309255      2.90154010     10.37904482      4.02996337
   Si      2.38566213      3.84658670     10.56485161      3.98418684
   Si      7.21777083     -0.11672898     10.66157928      3.95496239
   Si      4.62601870     -0.06087115     10.70315719      3.93526171
   Si      9.91252595      7.75376933     11.82436072      4.11001206
   Si     13.60874008      7.70524469     11.45388335      4.07234237
   Si      5.91107126      5.21340413     11.09084755      4.02379837
   Si      8.36012074      2.05573465     10.72702071      3.95445345
   Si      4.09443471      2.20280327     11.63829809      4.03368022
   Si     11.92164500      4.65089980     11.72294648      4.05912763
   Si      5.72007524      3.61310159     12.79173999      4.01061025
   Si     12.11913587      6.67800373     13.11590041      3.92381063
