   61
Geometry Step: 0
    H     11.58240908      8.90630932      2.86193171      1.06100583
    H      7.71850805      8.91793037      2.86125925      1.06061563
    H     15.44631011      8.91793037      2.86125925      1.05684283
    H      9.66052267      5.57750442      2.86193170      1.05485327
    H      5.79120454      5.56194977      2.86140756      1.05834572
    H     13.50429548      5.57750442      2.86193170      1.05180202
    H      7.71239285      2.23435394      2.86140755      1.05098960
    H      3.87001622      2.23435394      2.86140755      1.05473783
    H     11.58240908      2.22545752      2.86125925      1.05145755
   Si     11.58240908      8.91614266      4.36424935      3.90369479
   Si      7.72160605      8.91614266      4.36424935      3.90509429
   Si     15.44321210      8.91614266      4.36424935      3.92303546
   Si      9.65200756      5.57258916      4.36424935      3.90216055
   Si      5.79120454      5.57258916      4.36424935      3.93067202
   Si     13.51281059      5.57258916      4.36424935      3.87966481
   Si      7.72160605      2.22903567      4.36424935      3.91423475
   Si      3.86080303      2.22903567      4.36424935      3.89822653
   Si     11.58240908      2.22903567      4.36424935      3.90441087
   Si      9.65200756      7.80162483      5.15233247      4.03067809
   Si      5.79120454      7.80162483      5.15233247      4.02820144
   Si     13.51281059      7.80162483      5.15233247      4.03029565
   Si      7.72160605      4.45807133      5.15233247      4.02252769
   Si      3.86080303      4.45807133      5.15233247      4.02352420
   Si     11.58240908      4.45807133      5.15233247      4.03545179
   Si      5.79120454      1.11451783      5.15233247      4.02591262
   Si      1.93040151      1.11451783      5.15233247      4.02023183
   Si      9.65200756      1.11451783      5.15233247      4.02597790
   Si      9.69690199      7.88811875      7.52424443      3.98354563
   Si      5.85051610      7.88575623      7.44440962      3.97318752
   Si     13.42357731      7.78746118      7.46888530      3.94934792
   Si      7.31709237      4.44769674      7.39738374      3.97618814
   Si      4.82432109      4.69778816      7.29530944      3.98893116
   Si     11.36954012      4.84830484      7.64973701      4.03621164
   Si      5.74591078      0.92277178      7.55461050      3.99835727
   Si      1.95651829      0.96328505      7.57891260      4.02333405
   Si      9.75869210      0.78604590      7.40246108      3.99571706
   Si     11.56116110      6.97606726      8.73015959      4.09496665
   Si      7.72494207      6.65196860      8.19833591      4.00938510
   Si      3.88898417      6.75612041      8.08708074      3.98358423
   Si      8.94491139      2.85356965      8.27656050      3.94655870
   Si      6.40836074      2.71019991      9.04100028      3.91970078
   Si      1.28356085      2.72413353      9.04750817      3.96392659
   Si      7.77437242     -0.09063782      8.28397219      4.03015421
   Si      3.82951283     -0.02972871      8.67277732      4.19698573
   Si      0.03323744     -0.09699219      8.65063211      3.99616309
   Si      9.83155647      4.49306373      9.73387334      4.00040943
   Si      9.40399236      6.85595605     10.54244502      3.88902376
   Si      3.08918540      6.24292684     10.37308644      4.08606732
   Si     10.83957692      1.88439300     10.27649060      3.95676650
   Si      6.23556806      4.05358566     11.12626343      3.93590262
   Si      2.10665870      4.51911565      7.64467208      3.98891671
   Si      8.39542758      3.42592258     11.96445174      3.97534254
   Si      8.28330278      1.42559021     10.28381218      4.05585311
   Si      6.92216089      6.34941431     10.52406896      4.13392293
   Si     13.83442184      2.33396619     11.42502583      4.03040981
   Si      5.05700887      7.89531731     10.29903886      3.96253250
   Si      9.83421791      3.47190414     13.81834681      4.04216857
   Si      3.81197780      3.57829225      9.32775821      3.96497463
   Si     11.66143735      2.92147226     12.32812246      3.98686609
   Si      3.85287893      4.25009606     11.63961263      4.00695986
   Si     10.61217384      5.11107380     11.93022476      4.01299255
