   61
Geometry Step: 0
    H     11.58240908      8.90630932      2.86193171      1.05384383
    H      7.71850805      8.91793037      2.86125925      1.05477747
    H     15.44631011      8.91793037      2.86125925      1.05635623
    H      9.66052267      5.57750442      2.86193170      1.05419115
    H      5.79120454      5.56194977      2.86140756      1.05375287
    H     13.50429548      5.57750442      2.86193170      1.05813711
    H      7.71239285      2.23435394      2.86140755      1.05429711
    H      3.87001622      2.23435394      2.86140755      1.05725829
    H     11.58240908      2.22545752      2.86125925      1.05939869
   Si     11.58240908      8.91614266      4.36424935      3.90127887
   Si      7.72160605      8.91614266      4.36424935      3.89613209
   Si     15.44321210      8.91614266      4.36424935      3.91042537
   Si      9.65200756      5.57258916      4.36424935      3.90670766
   Si      5.79120454      5.57258916      4.36424935      3.90156155
   Si     13.51281059      5.57258916      4.36424935      3.90267805
   Si      7.72160605      2.22903567      4.36424935      3.90912161
   Si      3.86080303      2.22903567      4.36424935      3.89912296
   Si     11.58240908      2.22903567      4.36424935      3.90649812
   Si      9.65200756      7.80162483      5.15233247      4.03118230
   Si      5.79120454      7.80162483      5.15233247      4.02519803
   Si     13.51281059      7.80162483      5.15233247      4.02602037
   Si      7.72160605      4.45807133      5.15233247      4.03263213
   Si      3.86080303      4.45807133      5.15233247      4.02832421
   Si     11.58240908      4.45807133      5.15233247      4.02392181
   Si      5.79120454      1.11451783      5.15233247      4.03165830
   Si      1.93040151      1.11451783      5.15233247      4.02461242
   Si      9.65200756      1.11451783      5.15233247      4.03221681
   Si      9.84005831      7.93367042      7.47371783      3.96783098
   Si      5.86418014      7.84770182      7.54100948      4.02174153
   Si     13.72505565      7.81247674      7.51055076      4.01234395
   Si      7.84394792      4.49718526      7.56530495      3.98463731
   Si      3.92597019      4.50863220      7.64529491      4.00854462
   Si     11.72654457      4.59020750      7.51678071      3.98545084
   Si      6.04347667      1.28005134      7.51015466      4.01968653
   Si      1.99071500      1.31600781      7.48019980      3.97748177
   Si      9.86845600      1.17273843      7.54320078      3.98748178
   Si     11.77640688      6.83659291      8.37991228      4.06008979
   Si      7.91392947      6.79625080      8.17673708      4.01151871
   Si      4.01271027      6.71487185      8.63610284      3.98050489
   Si      9.82348182      3.41322547      8.36910756      4.00857518
   Si      5.92037753      3.47964915      8.56332454      3.99453380
   Si      1.94471367      3.45514242      8.59182157      4.14661581
   Si      7.94370731      0.02402272      8.21632112      3.95967105
   Si      4.00368357      0.18759138      8.13494728      4.01737653
   Si      0.27807880      0.03255324      8.44999929      4.08428828
   Si     14.04968583      9.88829164     10.48529946      3.95131213
   Si      7.89663729      9.77583815     10.50850277      3.92219036
   Si      3.98435759      8.99613633     12.00785174      4.11966536
   Si     11.21215337      3.27480334     10.37044739      3.96077370
   Si      5.96557349      5.82215176     10.30367662      3.93058856
   Si      3.80688030      6.72304881     11.18904201      3.96912840
   Si      7.92348692      1.96255348     11.60454709      4.04173705
   Si      5.80645151      2.86646633     10.95358741      3.98945423
   Si     10.26235504     10.68272765     10.54919501      3.99752397
   Si     13.57969129     10.04288238     13.11905852      3.97637475
   Si      7.76376649      7.37261537     10.50649290      4.03036255
   Si      9.14153392      3.98174929     11.11779500      3.93615175
   Si      5.72976900      4.91523960     12.50694817      4.04493227
   Si     12.84861146      7.27659062     10.69295029      3.92595908
   Si      8.08275395      5.77290840     12.26977355      4.04885797
   Si     11.91888577      9.22579109     11.58794113      4.03530913
