   61
Geometry Step: 0
    H     11.58240908      8.90630932      2.86193171      1.05710572
    H      7.71850805      8.91793037      2.86125925      1.05889919
    H     15.44631011      8.91793037      2.86125925      1.05683129
    H      9.66052267      5.57750442      2.86193170      1.05827534
    H      5.79120454      5.56194977      2.86140756      1.05341550
    H     13.50429548      5.57750442      2.86193170      1.05302308
    H      7.71239285      2.23435394      2.86140755      1.05531692
    H      3.87001622      2.23435394      2.86140755      1.05039102
    H     11.58240908      2.22545752      2.86125925      1.05407671
   Si     11.58240908      8.91614266      4.36424935      3.90808905
   Si      7.72160605      8.91614266      4.36424935      3.90579017
   Si     15.44321210      8.91614266      4.36424935      3.90943792
   Si      9.65200756      5.57258916      4.36424935      3.90569836
   Si      5.79120454      5.57258916      4.36424935      3.89815699
   Si     13.51281059      5.57258916      4.36424935      3.90756392
   Si      7.72160605      2.22903567      4.36424935      3.90847923
   Si      3.86080303      2.22903567      4.36424935      3.90147419
   Si     11.58240908      2.22903567      4.36424935      3.90496304
   Si      9.65200756      7.80162483      5.15233247      4.01394815
   Si      5.79120454      7.80162483      5.15233247      4.03586281
   Si     13.51281059      7.80162483      5.15233247      4.02772895
   Si      7.72160605      4.45807133      5.15233247      4.04123004
   Si      3.86080303      4.45807133      5.15233247      4.04658830
   Si     11.58240908      4.45807133      5.15233247      4.03844628
   Si      5.79120454      1.11451783      5.15233247      4.04241207
   Si      1.93040151      1.11451783      5.15233247      4.03544538
   Si      9.65200756      1.11451783      5.15233247      3.99795780
   Si      9.73871412      7.63965008      7.49608611      4.04377787
   Si      5.97262073      7.85518680      7.54829833      3.98172284
   Si     13.58901901      7.73233491      7.46096387      4.00648784
   Si      7.78217967      4.54634883      7.63084550      3.97056062
   Si      4.01511492      4.48911399      7.51171634      3.87836520
   Si     11.45010110      4.59983078      7.59582741      3.85602750
   Si      5.89219657      0.98727527      7.60597069      4.01331695
   Si      1.93722493      0.98108314      7.52281377      3.94284206
   Si      9.69696517      1.18196968      7.34906254      3.98495910
   Si     11.71155679      6.81844385      8.61727801      4.07484211
   Si      7.84476567      6.76847328      8.69777573      4.14543079
   Si      4.01160979      6.74924053      8.18737338      3.99650766
   Si      9.63966282      3.23628214      8.43258729      4.15221915
   Si      5.86487403      3.26507341      8.33961643      3.97695584
   Si      1.76921519      3.85351219      8.86012598      4.02027866
   Si      7.95126219     -0.09198949      8.33444941      4.00776164
   Si      3.87704306     -0.17420291      8.22410612      3.99312921
   Si     -0.11613373      0.06917859      8.37407093      4.07840130
   Si     10.76703171      6.38837987     11.97379492      4.02694366
   Si      9.92973470      1.01829974     10.16504337      3.85003103
   Si      3.85400458      7.07533001     10.50605134      4.16173421
   Si      5.72186322      2.91956982     13.05592271      3.98934826
   Si      5.33259440      0.82200343     11.88306831      4.03095278
   Si      2.22310473      3.12167527      8.49701392      4.11954249
   Si      5.93648170     -1.54676250     10.70381516      3.93475547
   Si      3.56274663     -0.96210703     10.40970489      3.81242060
   Si      8.65161417      7.40734250     11.89955332      4.02861213
   Si     14.22923373      9.22651415     10.63860760      4.01947839
   Si      5.05437865      2.91082904     10.57461039      3.96139764
   Si      3.44153903      1.89429030     13.43501053      4.08448527
   Si      3.02892470      1.39020407     11.01728616      4.06132521
   Si     13.64358637      5.54748122     10.72641528      3.99785429
   Si      3.40169369      3.88585198     11.98521711      3.87505448
   Si     12.93947089      7.18850354     12.46127677      3.99587031
