   61
Geometry Step: 0
    H     11.58240908      8.90630932      2.86193171      1.05757203
    H      7.71850805      8.91793037      2.86125925      1.05627433
    H     15.44631011      8.91793037      2.86125925      1.05711015
    H      9.66052267      5.57750442      2.86193170      1.05230574
    H      5.79120454      5.56194977      2.86140756      1.05520830
    H     13.50429548      5.57750442      2.86193170      1.05765080
    H      7.71239285      2.23435394      2.86140755      1.05440931
    H      3.87001622      2.23435394      2.86140755      1.05748139
    H     11.58240908      2.22545752      2.86125925      1.05481627
   Si     11.58240908      8.91614266      4.36424935      3.91074168
   Si      7.72160605      8.91614266      4.36424935      3.90186789
   Si     15.44321210      8.91614266      4.36424935      3.90711514
   Si      9.65200756      5.57258916      4.36424935      3.90052284
   Si      5.79120454      5.57258916      4.36424935      3.90624848
   Si     13.51281059      5.57258916      4.36424935      3.90678657
   Si      7.72160605      2.22903567      4.36424935      3.91063104
   Si      3.86080303      2.22903567      4.36424935      3.90588614
   Si     11.58240908      2.22903567      4.36424935      3.89885480
   Si      9.65200756      7.80162483      5.15233247      4.03137070
   Si      5.79120454      7.80162483      5.15233247      4.02765075
   Si     13.51281059      7.80162483      5.15233247      4.02176793
   Si      7.72160605      4.45807133      5.15233247      4.02735934
   Si      3.86080303      4.45807133      5.15233247      4.02647740
   Si     11.58240908      4.45807133      5.15233247      4.03178068
   Si      5.79120454      1.11451783      5.15233247      4.02362058
   Si      1.93040151      1.11451783      5.15233247      4.02894959
   Si      9.65200756      1.11451783      5.15233247      4.02992630
   Si      9.61118984      7.71535694      7.54158526      4.00950943
   Si      5.67881408      7.77021391      7.56688772      3.94525381
   Si     13.51593715      7.72684201      7.42668661      3.97778581
   Si      7.53900644      4.27979382      7.47892664      3.99911853
   Si      3.75675599      4.33283345      7.47358283      4.01032642
   Si     11.50489041      4.34561849      7.52845165      4.02448810
   Si      5.74907863      0.96001238      7.49734251      4.01185208
   Si      1.89847397      0.99345367      7.50847558      4.01127239
   Si      9.60926899      0.91606112      7.59398708      3.95411347
   Si     11.62412292      6.62578931      8.40109941      3.98145571
   Si      7.60734127      6.53477422      8.18469848      4.02716504
   Si      3.71606863      6.55244371      8.39575672      4.08865506
   Si      9.49807111      3.18160824      8.23541801      3.99142209
   Si      5.60453294      3.15555033      8.34260865      3.99174478
   Si      1.85104363      3.21124901      8.30232782      4.00123361
   Si      7.59937347     -0.21192952      8.48074276      4.07332172
   Si      3.82674782     -0.06707890      8.42565931      3.99529234
   Si      0.04494846     -0.05381646      8.55546618      4.11986275
   Si     10.37553974      5.73278462     10.22851844      3.89072091
   Si      7.70213463      5.95618240     10.63924446      3.98885973
   Si      1.92171385      5.96697562     10.35957673      3.94640334
   Si      8.94578009      3.75879101     10.50426648      3.96475563
   Si      4.62340234      2.98670906     10.51846180      3.94100453
   Si      2.24371243      3.37586627     10.62163137      4.07090860
   Si      6.08767423     -1.38390068     10.32840329      3.97217978
   Si      4.11018946      0.52186949     10.75131791      4.07415244
   Si      9.40006354      7.36713704     11.70178027      4.10201952
   Si     14.11893506      8.11520974     10.93688624      4.01621729
   Si      5.61123786      4.92474114     11.81276198      4.04098244
   Si      7.92181356      3.39297034     12.56230333      3.94821813
   Si      1.72380913      0.87928456     10.60028545      3.87681625
   Si     11.50672586      4.74923211     11.94807005      4.05566103
   Si      5.70623673      2.90765352     12.87791154      4.01010836
   Si      9.32914933      5.28825696     13.00750430      3.98673268
