  175
Geometry Step: 0
    H     23.15956353     15.59346189      2.86244552      1.05276405
    H     19.30401513     15.61549674      2.86212541      1.05388804
    H     15.44846672     15.59346189      2.86244552      1.05276405
    H     11.58381829     15.60243510      2.86130105      1.05767647
    H     27.02421196     15.60243510      2.86130105      1.05767647
    H     21.23552553     12.26033532      2.86259529      1.05229452
    H     17.37250472     12.26033532      2.86259529      1.05229452
    H     13.52391350     12.26003797      2.86244546      1.05276404
    H      9.65200756     12.23777954      2.86169959      1.05401058
    H     25.08411675     12.26003797      2.86244546      1.05276404
    H     19.30401513      8.91486120      2.86259474      1.05229454
    H     15.43260506      8.91001772      2.86212488      1.05388805
    H     11.58536485      8.90257440      2.86286973      1.05139427
    H      7.71865028      8.90257440      2.86286973      1.05139427
    H     23.17542519      8.91001772      2.86212488      1.05388805
    H     17.37946196      5.58203225      2.86244468      1.05276407
    H     13.50253889      5.58193162      2.86286947      1.05139427
    H      9.65200756      5.57258830      2.86157465      1.05416214
    H      5.80147624      5.58193162      2.86286947      1.05139427
    H     21.22856829      5.58203225      2.86244467      1.05276407
    H     15.42423255      2.23999258      2.86169921      1.05401059
    H     11.56918161      2.23325862      2.86286978      1.05139428
    H      7.73483352      2.23325862      2.86286978      1.05139428
    H      3.87978257      2.23999258      2.86169920      1.05401059
    H     19.30401513      2.23066213      2.86130059      1.05767650
   Si     23.16481815     15.60324966      4.36424935      3.90924606
   Si     19.30401513     15.60324966      4.36424935      3.90988089
   Si     15.44321210     15.60324966      4.36424935      3.90924606
   Si     11.58240908     15.60324966      4.36424935      3.90261417
   Si     27.02562118     15.60324966      4.36424935      3.90261417
   Si     21.23441664     12.25969616      4.36424935      3.90831225
   Si     17.37361361     12.25969616      4.36424935      3.90831225
   Si     13.51281059     12.25969616      4.36424935      3.90924604
   Si      9.65200756     12.25969616      4.36424935      3.91585788
   Si     25.09521966     12.25969616      4.36424935      3.90924604
   Si     19.30401513      8.91614266      4.36424935      3.90831227
   Si     15.44321210      8.91614266      4.36424935      3.90988092
   Si     11.58240908      8.91614266      4.36424935      3.90891853
   Si      7.72160605      8.91614266      4.36424935      3.90891853
   Si     23.16481815      8.91614266      4.36424935      3.90988092
   Si     17.37361361      5.57258916      4.36424935      3.90924607
   Si     13.51281059      5.57258916      4.36424935      3.90891856
   Si      9.65200756      5.57258916      4.36424935      3.91128141
   Si      5.79120454      5.57258916      4.36424935      3.90891856
   Si     21.23441664      5.57258916      4.36424935      3.90924607
   Si     15.44321210      2.22903567      4.36424935      3.91585792
   Si     11.58240908      2.22903567      4.36424935      3.90891857
   Si      7.72160605      2.22903567      4.36424935      3.90891857
   Si      3.86080303      2.22903567      4.36424935      3.91585792
   Si     19.30401513      2.22903567      4.36424935      3.90261422
   Si     21.23441664     14.48873183      5.15233247      4.03613988
   Si     17.37361361     14.48873183      5.15233247      4.03613988
   Si     13.51281059     14.48873183      5.15233247      4.03751018
   Si      9.65200756     14.48873183      5.15233247      4.01864179
   Si     25.09521966     14.48873183      5.15233247      4.03751018
   Si     19.30401513     11.14517833      5.15233247      4.02353865
   Si     15.44321210     11.14517833      5.15233247      4.03613996
   Si     11.58240908     11.14517833      5.15233247      4.03743848
   Si      7.72160605     11.14517833      5.15233247      4.03743848
   Si     23.16481815     11.14517833      5.15233247      4.03613996
   Si     17.37361361      7.80162483      5.15233247      4.03614045
   Si     13.51281059      7.80162483      5.15233247      4.02025885
   Si      9.65200756      7.80162483      5.15233247      4.03642132
   Si      5.79120454      7.80162483      5.15233247      4.02025885
   Si     21.23441664      7.80162483      5.15233247      4.03614045
   Si     15.44321210      4.45807133      5.15233247      4.03743875
   Si     11.58240908      4.45807133      5.15233247      4.03642140
   Si      7.72160605      4.45807133      5.15233247      4.03642141
   Si      3.86080303      4.45807133      5.15233247      4.03743875
   Si     19.30401513      4.45807133      5.15233247      4.03751069
   Si     13.51281059      1.11451783      5.15233247      4.03743858
   Si      9.65200756      1.11451783      5.15233247      4.02025874
   Si      5.79120454      1.11451783      5.15233247      4.03743858
   Si      1.93040151      1.11451783      5.15233247      4.01864193
   Si     17.37361361      1.11451783      5.15233247      4.01864193
   Si     21.23441664     14.48873183      7.51658182      4.00884778
   Si     17.37361361     14.48873183      7.51658182      4.00884778
   Si     13.51281059     14.48873183      7.51658182      4.00442229
   Si      9.65200756     14.48873183      7.51658182      3.97673603
   Si     25.09521966     14.48873183      7.51658182      4.00442229
   Si     19.30401513     11.14517833      7.51658182      4.01764729
   Si     15.44321210     11.14517833      7.51658182      4.00884790
   Si     11.58240908     11.14517833      7.51658182      4.03328483
   Si      7.72160605     11.14517833      7.51658182      4.03328483
   Si     23.16481815     11.14517833      7.51658182      4.00884790
   Si     17.37361361      7.80162483      7.51658182      4.00884830
   Si     13.51281059      7.80162483      7.51658182      3.98851420
   Si      9.65200756      7.80162483      7.51658182      4.00871673
   Si      5.79120454      7.80162483      7.51658182      3.98851420
   Si     21.23441664      7.80162483      7.51658182      4.00884830
   Si     15.44321210      4.45807133      7.51658182      4.03328536
   Si     11.58240908      4.45807133      7.51658182      4.00871691
   Si      7.72160605      4.45807133      7.51658182      4.00871691
   Si      3.86080303      4.45807133      7.51658182      4.03328536
   Si     19.30401513      4.45807133      7.51658182      4.00442262
   Si     13.51281059      1.11451783      7.51658182      4.03328463
   Si      9.65200756      1.11451783      7.51658182      3.98851428
   Si      5.79120454      1.11451783      7.51658182      4.03328463
   Si      1.93040151      1.11451783      7.51658182      3.97673596
   Si     17.37361361      1.11451783      7.51658182      3.97673596
   Si     23.16401207     13.37375039      8.06870088      3.90200003
   Si     19.30401513     13.37499003      8.40036849      4.00937043
   Si     15.44401818     13.37375039      8.06870087      3.90200003
   Si     11.58510077     13.35264629      8.35112322      3.99863281
   Si      7.71891435     13.35264629      8.35112323      3.99863280
   Si     21.23508680     10.03027640      8.40036736      4.00937062
   Si     17.37294345     10.03027640      8.40036735      4.00937062
   Si     13.49590281     10.06054293      8.37984515      4.01976308
   Si      9.65200756     10.03292036      8.05340619      3.88520603
   Si      5.80811232     10.06054293      8.37984515      4.01976308
   Si     19.30401513      6.68803908      8.06869775      3.90200185
   Si     15.46063484      6.65752647      8.37984400      4.01976304
   Si     11.59369788      6.69362619      8.40056231      4.01556470
   Si      7.71031725      6.69362619      8.40056231      4.01556470
   Si      3.84338029      6.65752647      8.37984400      4.01976304
   Si     17.35627943      3.35666956      8.35112238      3.99863326
   Si     13.51476600      3.34242544      8.05340462      3.88520646
   Si      9.65200756      3.33051929      8.40056276      4.01556456
   Si      5.78924913      3.34242544      8.05340462      3.88520646
   Si      1.94773569      3.35666956      8.35112237      3.99863326
   Si     15.42318655      0.00845525      8.35112370      3.99863303
   Si     11.61674002     -0.00029631      8.37984528      4.01976268
   Si      7.68727511     -0.00029631      8.37984528      4.01976268
   Si      3.88082857      0.00845525      8.35112369      3.99863304
   Si      0.00000000      0.00000144      8.50981673      4.24527027
   Si     23.11448102     13.34515265     10.34103774      4.04724030
   Si     19.30401513     13.36623872     10.84616551      3.90885491
   Si     15.49354923     13.34515265     10.34103773      4.04724031
   Si     11.91082203     12.81993773     10.67752415      3.93587993
   Si      7.39319310     12.81993774     10.67752416      3.93587993
   Si     21.22750777     10.03465425     10.84616385      3.90885466
   Si     17.38052248     10.03465424     10.84616385      3.90885466
   Si     13.14817492     10.68000819     10.70484335      3.96623428
   Si      9.65200757      9.97358055     10.31690177      4.04188118
   Si      6.15584021     10.68000819     10.70484335      3.96623427
   Si     19.30401513      6.74523374     10.34103622      4.04724492
   Si     15.82324491      6.04665281     10.70484252      3.96623546
   Si     11.57468318      6.68264717     10.83923318      3.91272016
   Si      7.72933195      6.68264717     10.83923318      3.91272017
   Si      3.48077021      6.04665281     10.70484252      3.96623547
   Si     17.05779885      3.90510513     10.67752385      3.93588104
   Si     13.46337735      3.37209555     10.31690020      4.04188156
   Si      9.65200757      3.35247436     10.83923404      3.91272098
   Si      5.84063778      3.37209555     10.31690019      4.04188157
   Si      2.24621627      3.90510513     10.67752385      3.93588105
   Si     14.79898759     -0.00727374     10.67752497      3.93588097
   Si     12.32707479     -0.00888933     10.70484416      3.96623569
   Si      6.97694034     -0.00888933     10.70484416      3.96623569
   Si      4.50502753     -0.00727375     10.67752496      3.93588097
   Si     21.38546666     14.48343085     11.51603901      4.05319542
   Si     17.22256359     14.48343085     11.51603900      4.05319543
   Si     13.65955436     14.40400889     11.49725911      4.06810497
   Si     24.94847589     14.40400889     11.49725912      4.06810496
   Si      9.65200756     12.08998561     11.46300062      4.06289394
   Si     19.30401512     11.14517971     11.88606992      4.23257902
   Si     15.37227654     11.27864084     11.51604094      4.05319771
   Si     11.50382193      9.05003221     11.48524702      4.04772278
   Si      7.80019320      9.05003221     11.48524703      4.04772278
   Si     23.23575371     11.27864084     11.51604096      4.05319770
   Si     17.45372532      7.67346516     11.51604101      4.05320168
   Si     13.58946589      5.43758995     11.48524727      4.04772395
   Si      9.65200757      5.57259142     11.88657323      4.23134157
   Si      5.71454924      5.43758995     11.48524727      4.04772396
   Si     21.15430493      7.67346516     11.51604101      4.05320168
   Si     15.29623555      2.31389377     11.46300006      4.06289361
   Si     11.73765378      2.23015425     11.48524550      4.04772210
   Si      7.56636135      2.23015425     11.48524549      4.04772211
   Si      4.00777957      2.31389376     11.46300005      4.06289362
   Si     19.30401512      4.62751190     11.49726074      4.06811090
   Si      5.78272162      3.33865723     12.88458646      3.92492983
   Si     13.52129351      3.33865724     12.88458645      3.92492982
   Si      9.65200757     10.04045579     12.88458588      3.92492839
   Si     19.30401513      6.67953906     12.91733116      3.91793318
   Si     15.43665630     13.37800102     12.91732614      3.91792947
   Si     23.17137395     13.37800102     12.91732615      3.91792945
