36
Lattice="1.0 0.0 0.0 0.0 1.0 0.0 0.0 0.0 1.0" Properties=species:S:1:pos:R:3:Z:I:1:forces:R:3 energy=17.7765806277 pbc="F F F"
Pd      1.24017213       1.23622801      -8.01000000       46      -0.01039479      -0.01039479       0.01286606 
Pd      4.42687203       1.31922425      -7.33747906       46      -0.00303338       0.02107655       0.00664434 
Pd      7.00861334       1.14240482      -6.91338383       46       0.00102050       0.00481482      -0.01337616 
Pd      1.31632627       4.42828527      -7.33257667       46       0.02107655      -0.00303338       0.00664434 
Pd      4.25948877       4.25870595      -7.13769434       46       0.00202763       0.00202763       0.00805075 
Pd      6.88790196       3.96551358      -6.84664091       46       0.00058648      -0.01383962       0.01567493 
Pd      1.14196829       7.01323758      -6.90991157       46       0.00481482       0.00102050      -0.01337616 
Pd      3.96341528       6.88701044      -6.84177753       46      -0.01383962       0.00058648       0.01567493 
Pd      7.04431900       7.04904716      -6.85721482       46       0.00341237       0.00341237      -0.00341947 
Pd     -0.03925090      -0.03971889      -4.00575130       46      -0.00195647      -0.00195647      -0.00641957 
Pd      3.09572779       0.11883302      -5.00537233       46       0.00363262       0.00708471      -0.00143775 
Pd      5.36072668       0.68904578      -4.86482821       46      -0.00639411      -0.00134131      -0.01022605 
Pd      0.11943636       3.09617635      -5.01033034       46       0.00708471       0.00363262      -0.00143775 
Pd      2.89006320       2.88856067      -5.08448910       46      -0.00124892      -0.00124892      -0.00874469 
Pd      5.49087369       2.76154696      -4.90777418       46      -0.00537885      -0.00068810      -0.01392947 
Pd      0.69059875       5.35758018      -4.86728338       46      -0.00134131      -0.00639411      -0.01022605 
Pd      2.76371525       5.48754502      -4.90916600       46      -0.00068810      -0.00537885      -0.01392947 
Pd      5.51309433       5.51432120      -4.99077200       46      -0.00523614      -0.00523614      -0.02235315 
Pd      1.45054488       1.45178774      -2.91863725       46       0.00523614       0.00523614       0.02235315 
Pd      4.20343390       1.47403059      -3.00210315       46       0.00068810       0.00537885       0.01392947 
Pd      6.27594480       1.60443649      -3.04499021       46       0.00134131       0.00639411       0.01022605 
Pd      1.47631790       4.20250911      -3.00055081       46       0.00537885       0.00068810       0.01392947 
Pd      4.07639722       4.07496147      -2.82584278       46       0.00124892       0.00124892       0.00874469 
Pd      6.84592137       3.86925501      -2.90464383       46      -0.00708471      -0.00363262       0.00143775 
Pd      1.60372504       6.27306536      -3.04547582       46       0.00639411       0.00134131       0.01022605 
Pd      3.86876049       6.84477084      -2.90094650       46      -0.00363262      -0.00708471       0.00143775 
Pd      7.00417820       7.00393886      -3.90477428       46       0.00195647       0.00195647       0.00641957 
Pd     -0.08317316      -0.07994209      -1.05178135       46      -0.00341237      -0.00341237       0.00341947 
Pd      2.99937579       0.07754936      -1.06455783       46       0.01383962      -0.00058648      -0.01567493 
Pd      5.82242777      -0.04337911      -0.99665732       46      -0.00481482      -0.00102050       0.01337616 
Pd      0.07582334       3.00217881      -1.06572657       46      -0.00058648       0.01383962      -0.01567493 
Pd      2.70582253       2.70587444      -0.77130877       46      -0.00202763      -0.00202763      -0.00805075 
Pd      5.64555498       2.53835671      -0.57228228       46      -0.02107655       0.00303338      -0.00664434 
Pd     -0.03937555       5.82304626      -0.99928964       46      -0.00102050      -0.00481482       0.01337616 
Pd      2.53581901       5.64888011      -0.57775671       46       0.00303338      -0.02107655      -0.00664434 
Pd      5.72847157       5.72516498       0.09977068       46       0.01039479       0.01039479      -0.01286606 
