   61
Geometry Step: 0
    H     11.58240908      8.90630932      2.86193171      1.05573481
    H      7.71850805      8.91793037      2.86125925      1.05872149
    H     15.44631011      8.91793037      2.86125925      1.05773102
    H      9.66052267      5.57750442      2.86193170      1.05566815
    H      5.79120454      5.56194977      2.86140756      1.05392008
    H     13.50429548      5.57750442      2.86193170      1.05462664
    H      7.71239285      2.23435394      2.86140755      1.05436677
    H      3.87001622      2.23435394      2.86140755      1.05375769
    H     11.58240908      2.22545752      2.86125925      1.05862065
   Si     11.58240908      8.91614266      4.36424935      3.90289832
   Si      7.72160605      8.91614266      4.36424935      3.90193507
   Si     15.44321210      8.91614266      4.36424935      3.90211557
   Si      9.65200756      5.57258916      4.36424935      3.90065795
   Si      5.79120454      5.57258916      4.36424935      3.90347832
   Si     13.51281059      5.57258916      4.36424935      3.91335191
   Si      7.72160605      2.22903567      4.36424935      3.90624344
   Si      3.86080303      2.22903567      4.36424935      3.90951865
   Si     11.58240908      2.22903567      4.36424935      3.91476790
   Si      9.65200756      7.80162483      5.15233247      4.02610446
   Si      5.79120454      7.80162483      5.15233247      4.03408023
   Si     13.51281059      7.80162483      5.15233247      4.03025468
   Si      7.72160605      4.45807133      5.15233247      4.03005530
   Si      3.86080303      4.45807133      5.15233247      3.99880271
   Si     11.58240908      4.45807133      5.15233247      4.01314248
   Si      5.79120454      1.11451783      5.15233247      4.02791084
   Si      1.93040151      1.11451783      5.15233247      4.01902865
   Si      9.65200756      1.11451783      5.15233247      4.03378869
   Si      9.72819794      7.88867037      7.50871783      4.02702379
   Si      5.89792121      7.78095779      7.58964365      3.97112239
   Si     13.64754066      7.66517076      7.50220486      3.99004767
   Si      7.83443452      4.52188994      7.50560432      3.98572042
   Si      4.01045224      4.38041741      7.56899287      4.08203543
   Si     11.59178355      4.39985536      7.40005092      3.98893973
   Si      5.84517534      1.13237635      7.48616887      3.99796351
   Si      1.71235353      0.97960698      7.52072870      3.98320020
   Si      9.73490106      1.00304588      7.56190962      3.97317807
   Si     11.63223117      6.59378803      8.21718445      4.03442689
   Si      7.87795258      6.70806350      8.40397387      3.99914414
   Si      4.01529103      6.56013176      8.37772565      3.96050154
   Si      9.66797758      3.28479407      8.24517186      4.02654221
   Si      6.00735393      3.33568976      8.34783895      3.97377036
   Si      1.25103994      2.96793724      8.74882843      3.93073354
   Si      7.69019013     -0.12815092      8.24790125      4.02699693
   Si      3.82503123      0.23275212      8.33813771      4.00190916
   Si     -0.03157590     -0.13511591      8.67415108      4.19765956
   Si     10.94149232      5.88910100     10.52273893      3.99605971
   Si      6.21748543      3.48884534     10.77546965      4.05247487
   Si      3.84210733      5.94982907     10.68581302      3.97161307
   Si      8.40778915      2.83209052     10.98488372      3.87000890
   Si      3.68683529      0.76284049     14.12263511      4.10279369
   Si      3.32464289      3.00864871      9.69827779      4.02792463
   Si      6.64731293     -0.88809359     10.37291443      3.97108024
   Si      4.26503896     -1.12868485     10.23262927      3.86806934
   Si      8.71313785      6.90751022     10.69137842      4.10895951
   Si     13.73951559      7.31907468     11.44759321      3.98820179
   Si      3.13291367      4.02766855     11.88404704      3.98979770
   Si      6.94271530      1.00000168     11.83425130      4.06499371
   Si      5.08315785      2.01712915     12.76683319      3.91272539
   Si     10.65892227      3.45393960     10.45223884      4.03491135
   Si      4.17967884     -0.69603388     15.63859238      3.97499810
   Si     12.60361665      5.55556029     12.34433919      4.04319001
