   61
Geometry Step: 0
    H     11.58240908      8.90630932      2.86193171      1.05670513
    H      7.71850805      8.91793037      2.86125925      1.05670586
    H     15.44631011      8.91793037      2.86125925      1.05791502
    H      9.66052267      5.57750442      2.86193170      1.05195691
    H      5.79120454      5.56194977      2.86140756      1.05678336
    H     13.50429548      5.57750442      2.86193170      1.05931864
    H      7.71239285      2.23435394      2.86140755      1.05330176
    H      3.87001622      2.23435394      2.86140755      1.05685260
    H     11.58240908      2.22545752      2.86125925      1.05610867
   Si     11.58240908      8.91614266      4.36424935      3.91245321
   Si      7.72160605      8.91614266      4.36424935      3.90619048
   Si     15.44321210      8.91614266      4.36424935      3.89780936
   Si      9.65200756      5.57258916      4.36424935      3.90350761
   Si      5.79120454      5.57258916      4.36424935      3.90437519
   Si     13.51281059      5.57258916      4.36424935      3.90504550
   Si      7.72160605      2.22903567      4.36424935      3.90473862
   Si      3.86080303      2.22903567      4.36424935      3.90003929
   Si     11.58240908      2.22903567      4.36424935      3.90253668
   Si      9.65200756      7.80162483      5.15233247      4.01995923
   Si      5.79120454      7.80162483      5.15233247      4.02118056
   Si     13.51281059      7.80162483      5.15233247      4.03072008
   Si      7.72160605      4.45807133      5.15233247      4.02719685
   Si      3.86080303      4.45807133      5.15233247      4.02770920
   Si     11.58240908      4.45807133      5.15233247      4.03728204
   Si      5.79120454      1.11451783      5.15233247      4.02074773
   Si      1.93040151      1.11451783      5.15233247      4.02717285
   Si      9.65200756      1.11451783      5.15233247      4.03292360
   Si      9.70726253      7.84338631      7.45448984      4.01703072
   Si      5.76897913      7.84422404      7.54891105      4.00889570
   Si     13.58512201      7.73645786      7.52056693      3.97557696
   Si      7.69614502      4.55095057      7.57304189      3.94711590
   Si      3.82064972      4.54994698      7.56869613      3.96741232
   Si     11.69510539      4.39389582      7.50654843      3.92861919
   Si      5.72224715      1.10738596      7.43651634      3.97622762
   Si      1.87912654      1.17137002      7.60825097      3.97033026
   Si      9.54827426      1.15181354      7.49256139      3.99175411
   Si     11.58084916      6.65755152      8.30903117      3.99511269
   Si      7.78183376      6.84296145      8.47002362      4.06415964
   Si      3.90892722      6.76826508      8.61176249      4.14974094
   Si      9.66453300      3.39408557      8.23823028      4.03450993
   Si      5.72985053      3.30521652      8.31399287      4.03777129
   Si      1.98098754      3.36564584      8.58006531      4.16678428
   Si      7.61842215     -0.01593574      8.24001263      4.02017754
   Si      3.82119706      0.06182257      8.50481878      4.05515011
   Si     -0.16501263      0.04516721      8.39356009      4.02103329
   Si     13.43353922      9.63061405     10.62361727      4.02703799
   Si      8.68780680      8.28600987     10.34492754      3.90479209
   Si      4.35820285      9.40864272     10.43166867      3.95648412
   Si      8.92905832      6.76539883     12.56258620      4.01082401
   Si      8.51173541      4.06498370     10.24980525      3.98048504
   Si      5.52318589      7.85525819     13.43968332      3.99485661
   Si     10.97277449      5.04265482     10.50708485      3.96014708
   Si      4.78695594      1.93016232     10.16004141      3.99270842
   Si     12.95975946     12.00368666     10.55813000      3.94360218
   Si     16.76387957     10.06114080     12.68536362      4.03885776
   Si      6.33880400      8.38341767     11.16570567      3.93538207
   Si      8.51020725      5.32118178     14.56079597      3.95514427
   Si      7.00219661      5.99934973     11.46401012      3.97347827
   Si     11.27801399      6.72336750     12.42705224      4.12834669
   Si      7.51590827      7.37855894     14.50273389      4.04340883
   Si     11.27128956      7.90875667     10.38502782      3.93980601
