   61
Geometry Step: 0
    H     11.58240908      8.90630932      2.86193171      1.05888882
    H      7.71850805      8.91793037      2.86125925      1.05848718
    H     15.44631011      8.91793037      2.86125925      1.05083768
    H      9.66052267      5.57750442      2.86193170      1.05579980
    H      5.79120454      5.56194977      2.86140756      1.05609856
    H     13.50429548      5.57750442      2.86193170      1.05712447
    H      7.71239285      2.23435394      2.86140755      1.05662916
    H      3.87001622      2.23435394      2.86140755      1.05634413
    H     11.58240908      2.22545752      2.86125925      1.05821277
   Si     11.58240908      8.91614266      4.36424935      3.90857900
   Si      7.72160605      8.91614266      4.36424935      3.91738631
   Si     15.44321210      8.91614266      4.36424935      3.88863356
   Si      9.65200756      5.57258916      4.36424935      3.90912906
   Si      5.79120454      5.57258916      4.36424935      3.90657961
   Si     13.51281059      5.57258916      4.36424935      3.89974068
   Si      7.72160605      2.22903567      4.36424935      3.90845153
   Si      3.86080303      2.22903567      4.36424935      3.88390011
   Si     11.58240908      2.22903567      4.36424935      3.90766942
   Si      9.65200756      7.80162483      5.15233247      4.01944837
   Si      5.79120454      7.80162483      5.15233247      4.01869078
   Si     13.51281059      7.80162483      5.15233247      4.04248902
   Si      7.72160605      4.45807133      5.15233247      4.00789269
   Si      3.86080303      4.45807133      5.15233247      4.02512343
   Si     11.58240908      4.45807133      5.15233247      4.02069116
   Si      5.79120454      1.11451783      5.15233247      4.01065084
   Si      1.93040151      1.11451783      5.15233247      4.02033417
   Si      9.65200756      1.11451783      5.15233247      3.99433524
   Si      9.62289008      7.82247951      7.47960088      4.04084148
   Si      5.67792475      7.72625155      7.40696449      3.97501901
   Si     13.41803693      7.47529589      7.61243383      3.94492004
   Si      7.80482452      4.48126598      7.63319054      4.07597480
   Si      3.99042685      4.27784829      7.63188853      4.02802336
   Si     11.76810321      4.38189882      7.55246080      3.98926746
   Si      5.85065386      0.78553050      7.50249322      4.06664135
   Si      1.78361452      0.99781422      7.52064713      4.03336739
   Si      9.46844377      2.10168337      7.52714561      4.10254658
   Si     11.30028221      6.78994732      8.77345435      4.01714214
   Si      7.71106245      6.82619292      8.33077092      3.93052339
   Si      3.91206113      6.53788168      8.55732906      4.04877959
   Si      9.78496160      3.13611897     10.87325726      4.10169933
   Si      5.84797357      4.72246959      9.28038507      3.97832708
   Si      1.94512068      3.13231642      8.63778516      4.13326434
   Si      7.39854663     -0.51026960      8.97327298      3.97125425
   Si      3.77238813     -0.00475344      8.22114729      3.98950894
   Si      0.16009422     -0.37508809      9.04772530      4.02040142
   Si     13.91344973     11.82591957      9.54581085      3.93869052
   Si     10.22736843     10.74661333     10.40920871      4.04641802
   Si      4.88871646     10.24832893     16.01675608      4.06270392
   Si     11.39187353      8.65256726     10.54054856      3.97767532
   Si      7.77472411      7.48695629     10.62179072      4.01648372
   Si      5.82484693      8.28103370     16.10394774      3.95245323
   Si      9.84627892      4.76335892      9.03138177      3.93971390
   Si      5.88346755      2.38606396      9.23620154      3.91734754
   Si     13.40298586     11.44308943     13.93463169      3.98545325
   Si     17.01474155     12.15672247      9.26224999      3.83497605
   Si      7.91542474     10.14066298     10.93286002      4.01842027
   Si      9.94777373      7.15256901     11.90437841      4.06390139
   Si      5.23335413      7.48521524     10.59683924      3.98966933
   Si     15.40534098      9.61598926      7.70229630      4.01334662
   Si      8.33024041      8.75579088     12.71901772      3.96332588
   Si     14.35094563     10.06264945     15.35052745      4.03377157
