    8
Geometry Step: 0
    H      3.86080303      2.22903567      2.80000000      1.06083511
   Si      3.86080303      2.22903567      4.36424935      3.90308587
   Si      1.93040151      1.11451783      5.15233247      4.03137788
   Si      1.93040151      1.11451783      7.51658182      4.00548469
   Si      0.00000000      0.00000124      8.30661866      4.00521787
   Si      0.00000000      0.00000041     10.67146379      3.95766285
   Si      3.86080303      2.22903771     11.49290205      4.04475207
   Si      3.86080303      2.22903708     13.83775156      3.99158366
