   61
Geometry Step: 0
    H     11.58240908      8.90630932      2.86193171      1.05417274
    H      7.71850805      8.91793037      2.86125925      1.05671964
    H     15.44631011      8.91793037      2.86125925      1.05566069
    H      9.66052267      5.57750442      2.86193170      1.05405686
    H      5.79120454      5.56194977      2.86140756      1.05427144
    H     13.50429548      5.57750442      2.86193170      1.05378240
    H      7.71239285      2.23435394      2.86140755      1.05409810
    H      3.87001622      2.23435394      2.86140755      1.05433661
    H     11.58240908      2.22545752      2.86125925      1.05650506
   Si     11.58240908      8.91614266      4.36424935      3.90938756
   Si      7.72160605      8.91614266      4.36424935      3.90318535
   Si     15.44321210      8.91614266      4.36424935      3.89753549
   Si      9.65200756      5.57258916      4.36424935      3.90741490
   Si      5.79120454      5.57258916      4.36424935      3.90775025
   Si     13.51281059      5.57258916      4.36424935      3.90701724
   Si      7.72160605      2.22903567      4.36424935      3.90827591
   Si      3.86080303      2.22903567      4.36424935      3.90887082
   Si     11.58240908      2.22903567      4.36424935      3.90381981
   Si      9.65200756      7.80162483      5.15233247      4.03346993
   Si      5.79120454      7.80162483      5.15233247      4.03031410
   Si     13.51281059      7.80162483      5.15233247      4.03881841
   Si      7.72160605      4.45807133      5.15233247      4.02509841
   Si      3.86080303      4.45807133      5.15233247      4.03028261
   Si     11.58240908      4.45807133      5.15233247      4.03090163
   Si      5.79120454      1.11451783      5.15233247      4.03050100
   Si      1.93040151      1.11451783      5.15233247      4.03112152
   Si      9.65200756      1.11451783      5.15233247      4.03091768
   Si      9.64452478      7.88496891      7.51419817      4.00118418
   Si      5.88112441      7.87785519      7.55013397      3.98220328
   Si     13.59077944      7.88452088      7.47939664      3.98834630
   Si      7.82929315      4.54119126      7.49085263      4.02046828
   Si      3.87746864      4.52248843      7.45229693      4.01322192
   Si     11.61216233      4.44799391      7.52695491      4.00143540
   Si      5.83520051      1.14219420      7.44710380      4.00837966
   Si      1.93638572      1.16194753      7.60678623      3.96250324
   Si      9.73716930      1.20378819      7.58282795      3.97441148
   Si     11.62151553      6.74168479      8.04984998      3.95535927
   Si      7.79761145      6.73594512      8.43533728      3.99433636
   Si      3.93884927      6.75292128      8.26361274      3.99424043
   Si      9.69019784      3.47452547      8.51076919      4.00369551
   Si      5.84961262      3.41466689      8.05505829      3.95985531
   Si      2.01339569      3.45926155      8.40692548      4.00830266
   Si      7.77198557      0.11389809      8.30118692      3.99780876
   Si      3.94492563      0.10907429      8.37077436      4.00509361
   Si      0.02552233      0.03508701      8.52475660      4.17585406
   Si     12.00576888      7.33970139     10.25998174      4.03005990
   Si      8.42259731      6.64114899     10.78730941      3.96821155
   Si      3.83308260      6.61278424     10.65031132      3.96535295
   Si      9.68257890      4.47748632     10.79556665      3.96180088
   Si      6.20173945      3.95778049     10.31777166      4.03704441
   Si      2.61089308      4.42960638     10.61918606      3.95264816
   Si      7.35632788      0.55504249     10.64521270      3.96417413
   Si      4.85585772      0.60590661     10.61155746      3.95434433
   Si     10.21142788      8.34068974     11.45068381      4.03902884
   Si     13.74381724      8.31171797     11.55578330      4.03796213
   Si      6.11910303      5.92808343     11.60264303      4.02526978
   Si      7.86675344      2.92061205     11.60973104      4.04389133
   Si      4.43004353      2.95213594     11.53651650      4.05323218
   Si     11.99751243      5.25587138     11.46329448      4.03742995
   Si      6.13047854      3.94088523     13.17877409      3.97839598
   Si     11.91717045      7.26867037     12.93183526      3.97616761
