    7
Geometry Step: 0
    H      3.86080303      2.22903567      2.80000000      1.05735578
   Si      3.86080303      2.22903567      4.36424935      3.90389933
   Si      1.93040151      1.11451783      5.15233247      4.03040937
   Si      1.93040151      1.11451783      7.51658182      4.02183079
   Si      0.00000000      0.00000121      8.30503433      3.96009962
   Si      0.00000000     -0.00000057     10.66991700      3.95713443
   Si      3.86080303      2.22903718     11.41132387      4.06927067
