  347
Geometry Step: 0
    H     34.73636905     22.28232652      2.86203752      1.05366096
    H     30.87998698     22.30097664      2.86179013      1.05414331
    H     27.02562118     22.28218265      2.86233767      1.05211083
    H     23.17125543     22.30097671      2.86179081      1.05414320
    H     19.31487327     22.28232653      2.86203834      1.05366085
    H     15.45259256     22.28493999      2.86033063      1.06113867
    H     38.59864973     22.28493991      2.86033030      1.06113871
    H     32.81604760     18.94635291      2.86214386      1.05291578
    H     28.95115231     18.94827193      2.86234891      1.05205097
    H     25.10009010     18.94827195      2.86234928      1.05205092
    H     21.23519473     18.94635295      2.86214464      1.05291568
    H     17.38599618     18.94141353      2.86203808      1.05366090
    H     13.51281059     18.90895532      2.86136283      1.05567599
    H     36.66524613     18.94141348      2.86203755      1.05366095
    H     30.88526181     15.59829593      2.86234894      1.05205095
    H     27.02562123     15.60324880      2.86164596      1.05442225
    H     23.16598054     15.59829596      2.86234938      1.05205089
    H     19.29803562     15.59236346      2.86179063      1.05414321
    H     15.44675041     15.58538279      2.86254672      1.05193180
    H     11.57887072     15.58538275      2.86254664      1.05193178
    H     34.75320669     15.59236349      2.86179029      1.05414324
    H     28.95973072     12.26317812      2.86234942      1.05205087
    H     25.09151170     12.26317807      2.86234950      1.05205086
    H     21.24149477     12.26378174      2.86233784      1.05211077
    H     17.36858167     12.26172991      2.86265126      1.05102398
    H     13.51281058     12.25306431      2.86161899      1.05371307
    H      9.65703949     12.26172989      2.86265155      1.05102385
    H     32.80974749     12.26378180      2.86233790      1.05211071
    H     27.02562120      8.91704019      2.86214513      1.05291553
    H     23.15240165      8.91640593      2.86179092      1.05414313
    H     19.30326126      8.91076661      2.86265128      1.05102398
    H     15.44578190      8.91762540      2.86259536      1.05114545
    H     11.57983919      8.91762542      2.86259577      1.05114532
    H      7.72235990      8.91076660      2.86265195      1.05102378
    H     30.89884075      8.91640596      2.86179125      1.05414305
    H     25.09674424      5.58600649      2.86203861      1.05366074
    H     21.22071363      5.58458555      2.86254679      1.05193182
    H     17.36787102      5.57590361      2.86161875      1.05371314
    H     13.51281056      5.56962071      2.86259550      1.05114535
    H      9.65775009      5.57590358      2.86161948      1.05371296
    H      5.80490757      5.58458555      2.86254755      1.05193165
    H     28.95449813      5.58600652      2.86203889      1.05366069
    H     23.13204127      2.24795905      2.86136299      1.05567597
    H     19.28677367      2.23490321      2.86254645      1.05193186
    H     15.44749012      2.23237512      2.86265114      1.05102394
    H     11.57813101      2.23237511      2.86265153      1.05102387
    H      7.73884745      2.23490327      2.86254728      1.05193171
    H      3.89357992      2.24795905      2.86136360      1.05567587
    H     27.02562122      2.23986676      2.86033093      1.06113858
   Si     34.74722723     22.29035666      4.36424935      3.90855045
   Si     30.88642420     22.29035666      4.36424935      3.90937958
   Si     27.02562118     22.29035666      4.36424935      3.90845937
   Si     23.16481815     22.29035666      4.36424935      3.90937961
   Si     19.30401513     22.29035666      4.36424935      3.90855049
   Si     15.44321210     22.29035666      4.36424935      3.89922594
   Si     38.60803025     22.29035666      4.36424935      3.89922595
   Si     32.81682571     18.94680316      4.36424935      3.90789452
   Si     28.95602269     18.94680316      4.36424935      3.90850923
   Si     25.09521966     18.94680316      4.36424935      3.90850929
   Si     21.23441664     18.94680316      4.36424935      3.90789459
   Si     17.37361361     18.94680316      4.36424935      3.90855043
   Si     13.51281059     18.94680316      4.36424935      3.91737935
   Si     36.67762874     18.94680316      4.36424935      3.90855040
   Si     30.88642420     15.60324966      4.36424935      3.90850911
   Si     27.02562118     15.60324966      4.36424935      3.90846218
   Si     23.16481815     15.60324966      4.36424935      3.90850921
   Si     19.30401513     15.60324966      4.36424935      3.90937958
   Si     15.44321210     15.60324966      4.36424935      3.90881234
   Si     11.58240908     15.60324966      4.36424935      3.90881235
   Si     34.74722723     15.60324966      4.36424935      3.90937959
   Si     28.95602269     12.25969616      4.36424935      3.90850917
   Si     25.09521966     12.25969616      4.36424935      3.90850921
   Si     21.23441664     12.25969616      4.36424935      3.90845938
   Si     17.37361361     12.25969616      4.36424935      3.90987998
   Si     13.51281059     12.25969616      4.36424935      3.91042556
   Si      9.65200756     12.25969616      4.36424935      3.90988008
   Si     32.81682571     12.25969616      4.36424935      3.90845935
   Si     27.02562118      8.91614266      4.36424935      3.90789479
   Si     23.16481815      8.91614266      4.36424935      3.90937962
   Si     19.30401513      8.91614266      4.36424935      3.90987993
   Si     15.44321210      8.91614266      4.36424935      3.90904249
   Si     11.58240908      8.91614266      4.36424935      3.90904259
   Si      7.72160605      8.91614266      4.36424935      3.90988004
   Si     30.88642420      8.91614266      4.36424935      3.90937965
   Si     25.09521966      5.57258916      4.36424935      3.90855058
   Si     21.23441664      5.57258916      4.36424935      3.90881224
   Si     17.37361361      5.57258916      4.36424935      3.91042562
   Si     13.51281059      5.57258916      4.36424935      3.90904267
   Si      9.65200756      5.57258916      4.36424935      3.91042571
   Si      5.79120454      5.57258916      4.36424935      3.90881231
   Si     28.95602269      5.57258916      4.36424935      3.90855059
   Si     23.16481815      2.22903567      4.36424935      3.91737924
   Si     19.30401513      2.22903567      4.36424935      3.90881232
   Si     15.44321210      2.22903567      4.36424935      3.90988010
   Si     11.58240908      2.22903567      4.36424935      3.90988013
   Si      7.72160605      2.22903567      4.36424935      3.90881238
   Si      3.86080303      2.22903567      4.36424935      3.91737928
   Si     27.02562118      2.22903567      4.36424935      3.89922592
   Si     32.81682571     21.17583883      5.15233247      4.03634150
   Si     28.95602269     21.17583883      5.15233247      4.03696290
   Si     25.09521966     21.17583883      5.15233247      4.03696293
   Si     21.23441664     21.17583883      5.15233247      4.03634140
   Si     17.37361361     21.17583883      5.15233247      4.03681047
   Si     13.51281059     21.17583883      5.15233247      4.01828204
   Si     36.67762874     21.17583883      5.15233247      4.03681063
   Si     30.88642420     17.83228533      5.15233247      4.02314434
   Si     27.02562118     17.83228533      5.15233247      4.03600723
   Si     23.16481815     17.83228533      5.15233247      4.02314441
   Si     19.30401513     17.83228533      5.15233247      4.03634148
   Si     15.44321210     17.83228533      5.15233247      4.03592691
   Si     11.58240908     17.83228533      5.15233247      4.03592696
   Si     34.74722723     17.83228533      5.15233247      4.03634172
   Si     28.95602269     14.48873183      5.15233247      4.03600754
   Si     25.09521966     14.48873183      5.15233247      4.03600744
   Si     21.23441664     14.48873183      5.15233247      4.03696319
   Si     17.37361361     14.48873183      5.15233247      4.02084466
   Si     13.51281059     14.48873183      5.15233247      4.03664139
   Si      9.65200756     14.48873183      5.15233247      4.02084485
   Si     32.81682571     14.48873183      5.15233247      4.03696341
   Si     27.02562118     11.14517833      5.15233247      4.02314458
   Si     23.16481815     11.14517833      5.15233247      4.03696322
   Si     19.30401513     11.14517833      5.15233247      4.04007219
   Si     15.44321210     11.14517833      5.15233247      4.03616848
   Si     11.58240908     11.14517833      5.15233247      4.03616872
   Si      7.72160605     11.14517833      5.15233247      4.04007259
   Si     30.88642420     11.14517833      5.15233247      4.03696347
   Si     25.09521966      7.80162483      5.15233247      4.03634138
   Si     21.23441664      7.80162483      5.15233247      4.02084463
   Si     17.37361361      7.80162483      5.15233247      4.03616839
   Si     13.51281059      7.80162483      5.15233247      4.01988687
   Si      9.65200756      7.80162483      5.15233247      4.03616879
   Si      5.79120454      7.80162483      5.15233247      4.02084488
   Si     28.95602269      7.80162483      5.15233247      4.03634151
   Si     23.16481815      4.45807133      5.15233247      4.03592707
   Si     19.30401513      4.45807133      5.15233247      4.03664148
   Si     15.44321210      4.45807133      5.15233247      4.03616845
   Si     11.58240908      4.45807133      5.15233247      4.03616862
   Si      7.72160605      4.45807133      5.15233247      4.03664172
   Si      3.86080303      4.45807133      5.15233247      4.03592722
   Si     27.02562118      4.45807133      5.15233247      4.03681030
   Si     21.23441664      1.11451783      5.15233247      4.03592699
   Si     17.37361361      1.11451783      5.15233247      4.02084460
   Si     13.51281059      1.11451783      5.15233247      4.04007224
   Si      9.65200756      1.11451783      5.15233247      4.02084467
   Si      5.79120454      1.11451783      5.15233247      4.03592709
   Si      1.93040151      1.11451783      5.15233247      4.01828210
   Si     25.09521966      1.11451783      5.15233247      4.01828208
   Si     32.81682571     21.17583883      7.51658182      4.00719735
   Si     28.95602269     21.17583883      7.51658182      4.01367290
   Si     25.09521966     21.17583883      7.51658182      4.01367283
   Si     21.23441664     21.17583883      7.51658182      4.00719723
   Si     17.37361361     21.17583883      7.51658182      4.00281026
   Si     13.51281059     21.17583883      7.51658182      3.98673287
   Si     36.67762874     21.17583883      7.51658182      4.00281037
   Si     30.88642420     17.83228533      7.51658182      4.02104873
   Si     27.02562118     17.83228533      7.51658182      4.01295451
   Si     23.16481815     17.83228533      7.51658182      4.02104859
   Si     19.30401513     17.83228533      7.51658182      4.00719698
   Si     15.44321210     17.83228533      7.51658182      4.03482263
   Si     11.58240908     17.83228533      7.51658182      4.03482282
   Si     34.74722723     17.83228533      7.51658182      4.00719702
   Si     28.95602269     14.48873183      7.51658182      4.01295462
   Si     25.09521966     14.48873183      7.51658182      4.01295477
   Si     21.23441664     14.48873183      7.51658182      4.01367294
   Si     17.37361361     14.48873183      7.51658182      3.99088096
   Si     13.51281059     14.48873183      7.51658182      4.00810764
   Si      9.65200756     14.48873183      7.51658182      3.99088098
   Si     32.81682571     14.48873183      7.51658182      4.01367273
   Si     27.02562118     11.14517833      7.51658182      4.02104873
   Si     23.16481815     11.14517833      7.51658182      4.01367289
   Si     19.30401513     11.14517833      7.51658182      4.03254419
   Si     15.44321210     11.14517833      7.51658182      4.01345117
   Si     11.58240908     11.14517833      7.51658182      4.01345150
   Si      7.72160605     11.14517833      7.51658182      4.03254428
   Si     30.88642420     11.14517833      7.51658182      4.01367260
   Si     25.09521966      7.80162483      7.51658182      4.00719767
   Si     21.23441664      7.80162483      7.51658182      3.99088077
   Si     17.37361361      7.80162483      7.51658182      4.01345112
   Si     13.51281059      7.80162483      7.51658182      4.02724824
   Si      9.65200756      7.80162483      7.51658182      4.01345131
   Si      5.79120454      7.80162483      7.51658182      3.99088086
   Si     28.95602269      7.80162483      7.51658182      4.00719757
   Si     23.16481815      4.45807133      7.51658182      4.03482249
   Si     19.30401513      4.45807133      7.51658182      4.00810779
   Si     15.44321210      4.45807133      7.51658182      4.01345180
   Si     11.58240908      4.45807133      7.51658182      4.01345166
   Si      7.72160605      4.45807133      7.51658182      4.00810770
   Si      3.86080303      4.45807133      7.51658182      4.03482232
   Si     27.02562118      4.45807133      7.51658182      4.00281051
   Si     21.23441664      1.11451783      7.51658182      4.03482277
   Si     17.37361361      1.11451783      7.51658182      3.99088113
   Si     13.51281059      1.11451783      7.51658182      4.03254428
   Si      9.65200756      1.11451783      7.51658182      3.99088121
   Si      5.79120454      1.11451783      7.51658182      4.03482241
   Si      1.93040151      1.11451783      7.51658182      3.98673207
   Si     25.09521966      1.11451783      7.51658182      3.98673203
   Si     34.74695702     20.06116636      8.07124095      3.91025137
   Si     30.88924108     20.06284322      8.39532708      4.00540810
   Si     27.02562086     20.06103187      8.04255623      3.87878758
   Si     23.16200111     20.06284318      8.39532702      4.00540841
   Si     19.30428559     20.06116638      8.07124349      3.91025217
   Si     15.44310537     20.04008287      8.34584966      3.99047182
   Si     11.58251594     20.04008297      8.34584924      3.99047196
   Si     32.81955091     16.71944873      8.39532547      4.00540770
   Si     28.96860085     16.72503149      8.39706892      4.00951226
   Si     25.08264125     16.72503175      8.39706923      4.00951267
   Si     21.23169162     16.71944924      8.39532629      4.00540819
   Si     17.35641790     16.74777884      8.37870456      4.01883477
   Si     13.51281078     16.72034613      8.05270051      3.88635838
   Si      9.66920321     16.74777823      8.37870332      4.01883476
   Si     30.88617262     13.37436026      8.04255425      3.87878966
   Si     27.02562128     13.35969079      8.39706916      4.00951261
   Si     23.16506977     13.37436064      8.04255706      3.87878974
   Si     19.31803583     13.34840070      8.36945416      4.01542525
   Si     15.45501419     13.38283276      8.39450532      4.01211572
   Si     11.57060675     13.38283253      8.39450432      4.01211586
   Si      7.70758532     13.34840015      8.36945242      4.01542529
   Si     28.95593073     10.02746150      8.39532558      4.00540880
   Si     25.09531204     10.02746152      8.39532646      4.00540899
   Si     21.21907051     10.05571159      8.36945400      4.01542550
   Si     17.37443806     10.03113815      8.03232177      3.87353116
   Si     13.51281026     10.02772840      8.39486935      4.00726879
   Si      9.65118306     10.03113775      8.03231996      3.87353271
   Si      5.80655097     10.05571174      8.36945217      4.01542561
   Si     27.02562132      6.68742070      8.07124386      3.91025146
   Si     23.18221058      6.65721205      8.37870381      4.01883501
   Si     19.31737925      6.69302115      8.39450530      4.01211577
   Si     15.44067099      6.68857549      8.39486932      4.00726869
   Si     11.58494929      6.68857536      8.39486853      4.00726918
   Si      7.70824210      6.69302110      8.39450331      4.01211621
   Si      3.84341090      6.65721186      8.37870252      4.01883501
   Si     25.07677261      3.35408329      8.34584937      3.99047260
   Si     21.23664891      3.34226661      8.05270179      3.88636043
   Si     17.37517503      3.32902532      8.39450585      4.01211582
   Si     13.51281021      3.34260300      8.03232086      3.87353139
   Si      9.65044588      3.32902558      8.39450486      4.01211613
   Si      5.78897255      3.34226654      8.05270034      3.88636097
   Si      1.94884904      3.35408356      8.34584913      3.99047253
   Si     23.14647800      0.01071440      8.34584968      3.99047218
   Si     19.33860137     -0.00011113      8.37870426      4.01883465
   Si     15.41384517      0.00076703      8.36945453      4.01542517
   Si     11.61177579      0.00076697      8.36945444      4.01542526
   Si      7.68701925     -0.00011101      8.37870422      4.01883467
   Si      3.87914381      0.01071462      8.34584986      3.99047196
   Si      0.00000010      0.00000265      8.57472162      4.29728677
   Si     34.70661052     20.03787019     10.34602271      4.04563711
   Si     30.91702842     20.05658554     10.83613511      3.90979380
   Si     27.02562182     20.01128818     10.30538021      4.03983039
   Si     23.13421459     20.05658569     10.83613611      3.90979416
   Si     19.34463094     20.03787260     10.34602778      4.04563580
   Si     15.77078335     19.51437157     10.67087227      3.93273955
   Si     11.25483523     19.51437116     10.67087141      3.93273919
   Si     32.82802467     16.74664410     10.83613242      3.90979271
   Si     29.07235788     16.78493511     10.84022414      3.94583333
   Si     24.97888620     16.78493605     10.84022559      3.94583363
   Si     21.22321854     16.74664542     10.83613510      3.90979341
   Si     17.00714570     17.37784064     10.69900299      3.96583917
   Si     13.51281003     16.67064764     10.31692297      4.04068619
   Si     10.01847404     17.37784020     10.69900114      3.96583900
   Si     30.84309602     13.39923100     10.30537989      4.03983163
   Si     27.02562285     13.23988336     10.84022530      3.94583362
   Si     23.20814795     13.39923119     10.30538306      4.03983179
   Si     19.66705705     12.76928269     10.69385330      3.97831468
   Si     15.42797446     13.39650398     10.82720267      3.91354555
   Si     11.59764418     13.39650473     10.82720125      3.91354657
   Si      7.35856316     12.76928285     10.69385021      3.97831529
   Si     28.93661707     10.00652641     10.83613286      3.90979314
   Si     25.11462733     10.00652600     10.83613455      3.90979348
   Si     20.89204962     10.64752967     10.69385340      3.97831515
   Si     17.33676250     10.00938467     10.28651784      4.03467989
   Si     13.51280991     10.16753874     10.82580586      3.94794425
   Si      9.68885718     10.00938460     10.28651573      4.03467953
   Si      6.13357110     10.64753061     10.69385006      3.97831574
   Si     27.02562282      6.73401077     10.34602365      4.04563437
   Si     23.55322748      6.03970466     10.69900178      3.96583978
   Si     19.31570167      6.66276583     10.82720267      3.91354589
   Si     15.56175029      6.61866903     10.82580537      3.94794398
   Si     11.46386933      6.61866892     10.82580434      3.94794461
   Si      7.70991942      6.66276661     10.82719979      3.91354704
   Si      3.47239470      6.03970529     10.69899973      3.96584014
   Si     24.78533256      3.90071834     10.67087128      3.93273996
   Si     21.19361050      3.36711668     10.31692139      4.04068758
   Si     17.40053555      3.34560299     10.82720359      3.91354725
   Si     13.51280979      3.38610676     10.28651503      4.03467991
   Si      9.62508565      3.34560510     10.82720214      3.91354739
   Si      5.83201130      3.36711768     10.31692143      4.04068643
   Si      2.24028915      3.90071967     10.67087026      3.93274023
   Si     22.52735937     -0.01020803     10.67087320      3.93274080
   Si     20.05888510     -0.01266588     10.69900383      3.96584114
   Si     14.73780576     -0.01193533     10.69385424      3.97831600
   Si     12.28781567     -0.01193528     10.69385398      3.97831598
   Si      6.96673604     -0.01266430     10.69900363      3.96584166
   Si      4.49826156     -0.01020618     10.67087304      3.93274142
   Si     32.98079451     21.17940895     11.52379831      4.06277366
   Si     28.80475498     21.14208922     11.45853762      4.03910789
   Si     25.24648853     21.14208928     11.45853758      4.03910792
   Si     21.07044663     21.17940986     11.52380019      4.06277363
   Si     17.51360053     21.09501779     11.50285726      4.07110087
   Si     36.53764264     21.09501747     11.50285477      4.07110129
   Si     13.51280884     18.78826496     11.45692053      4.06128146
   Si     30.95177067     17.87001302     11.91736280      4.25146593
   Si     27.02562253     17.92863043     11.43744057      4.01787663
   Si     23.09947366     17.87001423     11.91736457      4.25146583
   Si     19.21893704     17.97250208     11.52380156      4.06277500
   Si     15.37019754     15.75383960     11.48295297      4.05253053
   Si     11.65542133     15.75384007     11.48295156      4.05253086
   Si     34.83230461     17.97249812     11.52379868      4.06277506
   Si     29.03946203     14.44055867     11.43743832      4.01787986
   Si     25.01178337     14.44055887     11.43744078      4.01788020
   Si     21.33927769     14.37460618     11.45854082      4.03911159
   Si     17.43210729     12.11442987     11.43217376      4.03736369
   Si     13.51280895     12.33629193     11.90761512      4.24785950
   Si      9.59351173     12.11442799     11.43216907      4.03736514
   Si     32.71196610     14.37460640     11.45853713      4.03911140
   Si     27.02562322     11.06972128     11.91736099      4.25146719
   Si     23.11841369     11.29305303     11.45854039      4.03911284
   Si     19.20745550      9.03943600     11.43217456      4.03736397
   Si     15.53100920      8.96683538     11.41223986      4.01598255
   Si     11.49460921      8.96683574     11.41223545      4.01598396
   Si      7.81816514      9.03943717     11.43216882      4.03736566
   Si     30.93282982     11.29305263     11.45853666      4.03911267
   Si     25.17411412      7.65783785     11.52379396      4.06277272
   Si     21.32832561      5.43406717     11.48295523      4.05253568
   Si     17.43994409      5.53429496     11.90761543      4.24785964
   Si     13.51280952      5.47121141     11.41223767      4.01598265
   Si      9.58567553      5.53429595     11.90761303      4.24786058
   Si      5.69729626      5.43406712     11.48295086      4.05253575
   Si     28.87713150      7.65783894     11.52379294      4.06277273
   Si     23.02752052      2.30830988     11.45692079      4.06128397
   Si     19.47093634      2.21697658     11.48295485      4.05253388
   Si     15.28815677      2.25101556     11.43217182      4.03736249
   Si     11.73746245      2.25101544     11.43217077      4.03736275
   Si      7.55468439      2.21697945     11.48295189      4.05253364
   Si      3.99810315      2.30831335     11.45691937      4.06128353
   Si     27.02562187      4.61971804     11.50285108      4.07110086
   Si      5.77319023      3.33315723     12.88346259      3.92435367
   Si     13.51280855      3.35317388     12.80676542      3.90086193
   Si     21.25243295      3.33315405     12.88346759      3.92435300
   Si      9.66033613     10.02585150     12.80676244      3.90086351
   Si     17.36528210     10.02585216     12.80677047      3.90086054
   Si     13.51280884     16.73856786     12.88346174      3.92434865
   Si     27.02562369      6.66976883     12.93818711      3.91949624
   Si     23.17769534     13.38165015     12.82933413      3.89570144
   Si     30.87354935     13.38164932     12.82932975      3.89570192
   Si     19.28899559     20.06999511     12.93820258      3.91949585
   Si     27.02562164     20.04645425     12.82932931      3.89569895
   Si     34.76224643     20.06999203     12.93820047      3.91949632
