  174
Geometry Step: 0
    H     23.16018853     15.59391308      2.86236896      1.05263292
    H     19.30401503     15.61549391      2.86206668      1.05370404
    H     15.44784169     15.59391316      2.86236915      1.05263288
    H     11.58320405     15.59809995      2.86123722      1.05721596
    H     27.02482634     15.59809999      2.86123710      1.05721599
    H     21.23859016     12.26067299      2.86253444      1.05210393
    H     17.36944007     12.26067302      2.86253456      1.05210390
    H     13.52183260     12.25997950      2.86234799      1.05264882
    H      9.65200760     12.23868605      2.86172487      1.05353566
    H     25.08619763     12.25997949      2.86234780      1.05264886
    H     19.30401513      8.91915750      2.86217429      1.05388974
    H     15.44641406      8.90352399      2.86243145      1.05255462
    H     11.58310406      8.90585795      2.86275174      1.05131636
    H      7.72091108      8.90585792      2.86275167      1.05131637
    H     23.16161621      8.90352391      2.86243135      1.05255463
    H     17.36441702      5.59171129      2.86121994      1.05729873
    H     13.49633090      5.58741291      2.86272403      1.05143363
    H      9.65200753      5.57302163      2.86155827      1.05373791
    H      5.80768422      5.58741291      2.86272404      1.05143363
    H     21.24361329      5.59171125      2.86121993      1.05729873
    H     15.42484468      2.23447047      2.86154121      1.05400725
    H     11.56936973      2.23267717      2.86286192      1.05111023
    H      7.73464536      2.23267715      2.86286199      1.05111022
    H      3.87917047      2.23447045      2.86154134      1.05400722
    H     19.30401515      2.21667242      2.86077716      1.05903744
   Si     23.16481815     15.60324966      4.36424935      3.90898430
   Si     19.30401513     15.60324966      4.36424935      3.90987005
   Si     15.44321210     15.60324966      4.36424935      3.90898424
   Si     11.58240908     15.60324966      4.36424935      3.90409580
   Si     27.02562118     15.60324966      4.36424935      3.90409581
   Si     21.23441664     12.25969616      4.36424935      3.90814749
   Si     17.37361361     12.25969616      4.36424935      3.90814747
   Si     13.51281059     12.25969616      4.36424935      3.90917559
   Si      9.65200756     12.25969616      4.36424935      3.91519411
   Si     25.09521966     12.25969616      4.36424935      3.90917561
   Si     19.30401513      8.91614266      4.36424935      3.90967794
   Si     15.44321210      8.91614266      4.36424935      3.90792260
   Si     11.58240908      8.91614266      4.36424935      3.90941648
   Si      7.72160605      8.91614266      4.36424935      3.90941647
   Si     23.16481815      8.91614266      4.36424935      3.90792261
   Si     17.37361361      5.57258916      4.36424935      3.90621824
   Si     13.51281059      5.57258916      4.36424935      3.91016672
   Si      9.65200756      5.57258916      4.36424935      3.91123431
   Si      5.79120454      5.57258916      4.36424935      3.91016666
   Si     21.23441664      5.57258916      4.36424935      3.90621821
   Si     15.44321210      2.22903567      4.36424935      3.91417730
   Si     11.58240908      2.22903567      4.36424935      3.90850363
   Si      7.72160605      2.22903567      4.36424935      3.90850357
   Si      3.86080303      2.22903567      4.36424935      3.91417726
   Si     19.30401513      2.22903567      4.36424935      3.90261191
   Si     21.23441664     14.48873183      5.15233247      4.03649403
   Si     17.37361361     14.48873183      5.15233247      4.03649445
   Si     13.51281059     14.48873183      5.15233247      4.03796477
   Si      9.65200756     14.48873183      5.15233247      4.01867840
   Si     25.09521966     14.48873183      5.15233247      4.03796423
   Si     19.30401513     11.14517833      5.15233247      4.02859061
   Si     15.44321210     11.14517833      5.15233247      4.03831636
   Si     11.58240908     11.14517833      5.15233247      4.03790187
   Si      7.72160605     11.14517833      5.15233247      4.03790165
   Si     23.16481815     11.14517833      5.15233247      4.03831587
   Si     17.37361361      7.80162483      5.15233247      4.01778230
   Si     13.51281059      7.80162483      5.15233247      4.02249186
   Si      9.65200756      7.80162483      5.15233247      4.03625930
   Si      5.79120454      7.80162483      5.15233247      4.02249190
   Si     21.23441664      7.80162483      5.15233247      4.01778223
   Si     15.44321210      4.45807133      5.15233247      4.04354196
   Si     11.58240908      4.45807133      5.15233247      4.03655794
   Si      7.72160605      4.45807133      5.15233247      4.03655821
   Si      3.86080303      4.45807133      5.15233247      4.04354228
   Si     19.30401513      4.45807133      5.15233247      4.03350525
   Si     13.51281059      1.11451783      5.15233247      4.03830365
   Si      9.65200756      1.11451783      5.15233247      4.02020688
   Si      5.79120454      1.11451783      5.15233247      4.03830417
   Si      1.93040151      1.11451783      5.15233247      4.01934764
   Si     17.37361361      1.11451783      5.15233247      4.01934749
   Si     21.23441664     14.48873183      7.51658182      4.00826701
   Si     17.37361361     14.48873183      7.51658182      4.00826672
   Si     13.51281059     14.48873183      7.51658182      4.00356799
   Si      9.65200756     14.48873183      7.51658182      3.97765346
   Si     25.09521966     14.48873183      7.51658182      4.00356838
   Si     19.30401513     11.14517833      7.51658182      4.00814064
   Si     15.44321210     11.14517833      7.51658182      4.00745423
   Si     11.58240908     11.14517833      7.51658182      4.03161490
   Si      7.72160605     11.14517833      7.51658182      4.03161514
   Si     23.16481815     11.14517833      7.51658182      4.00745465
   Si     17.37361361      7.80162483      7.51658182      3.99242838
   Si     13.51281059      7.80162483      7.51658182      3.99021417
   Si      9.65200756      7.80162483      7.51658182      4.00824166
   Si      5.79120454      7.80162483      7.51658182      3.99021407
   Si     21.23441664      7.80162483      7.51658182      3.99242839
   Si     15.44321210      4.45807133      7.51658182      4.01789461
   Si     11.58240908      4.45807133      7.51658182      4.00764956
   Si      7.72160605      4.45807133      7.51658182      4.00764938
   Si      3.86080303      4.45807133      7.51658182      4.01789452
   Si     19.30401513      4.45807133      7.51658182      4.01337689
   Si     13.51281059      1.11451783      7.51658182      4.03220015
   Si      9.65200756      1.11451783      7.51658182      3.98819991
   Si      5.79120454      1.11451783      7.51658182      4.03219990
   Si      1.93040151      1.11451783      7.51658182      3.97111492
   Si     17.37361361      1.11451783      7.51658182      3.97111480
   Si     23.16380439     13.37512508      8.06895946      3.90521196
   Si     19.30401517     13.37943819      8.40039601      4.00969200
   Si     15.44422588     13.37512520      8.06895571      3.90521050
   Si     11.58468956     13.35509579      8.34918412      3.99906752
   Si      7.71932561     13.35509555      8.34918639      3.99906776
   Si     21.23964678     10.03996553      8.36156817      4.00499132
   Si     17.36838344     10.03996563      8.36156564      4.00499091
   Si     13.49599592     10.06252108      8.38042550      4.02264989
   Si      9.65200773     10.03307477      8.05420500      3.88650921
   Si      5.80801938     10.06252128      8.38042769      4.02265021
   Si     19.30401565      6.59183295      8.51253612      4.11005565
   Si     15.44668209      6.67379937      8.32652030      4.01751043
   Si     11.59176726      6.69564647      8.39462128      4.01461560
   Si      7.71224779      6.69564662      8.39462008      4.01461543
   Si      3.85733350      6.67379935      8.32651935      4.01751036
   Si     17.35052461      3.35533982      8.29876755      4.00176316
   Si     13.51522513      3.34376424      8.05336119      3.88898667
   Si      9.65200762      3.33234269      8.39968510      4.01502587
   Si      5.78879006      3.34376423      8.05335891      3.88898569
   Si      1.95349046      3.35533902      8.29876622      4.00176298
   Si     15.42541301      0.01100062      8.34809028      3.99881513
   Si     11.61857090      0.00334100      8.38329862      4.01964360
   Si      7.68544476      0.00334124      8.38329579      4.01964313
   Si      3.87860135      0.01100059      8.34808670      3.99881466
   Si     -0.00000075      0.00190143      8.49662294      4.23292982
   Si     23.13300954     13.39995460     10.34195100      4.04469838
   Si     19.30401558     13.41762717     10.84338616      3.90874405
   Si     15.47502029     13.39995508     10.34194284      4.04470067
   Si     11.90441663     12.84603447     10.67859483      3.93529649
   Si      7.39959916     12.84603431     10.67859682      3.93529637
   Si     21.25040679     10.15299007     10.77726418      3.96578778
   Si     17.35762240     10.15298976     10.77726206      3.96578835
   Si     13.13770217     10.70407797     10.69791929      3.96614770
   Si      9.65200871      9.99933607     10.31753719      4.03977389
   Si      6.16631285     10.70407758     10.69792164      3.96614751
   Si     19.30401632      5.20692287     10.72137847      3.91842618
   Si     15.78534024      6.13154408     10.63578095      4.00608777
   Si     11.56375454      6.71160963     10.82803589      3.91254806
   Si      7.74026050      6.71161020     10.82803501      3.91254841
   Si      3.51867536      6.13154267     10.63578005      4.00608798
   Si     17.07273367      4.03986495     10.56921897      3.97983814
   Si     13.48737594      3.42131142     10.31648531      4.04039069
   Si      9.65200766      3.37288045     10.83707126      3.91554461
   Si      5.81663873      3.42130972     10.31647878      4.04039231
   Si      2.23128289      4.03986337     10.56921800      3.97983783
   Si     14.82052997      0.03252907     10.67612470      3.93920905
   Si     12.34434363      0.02855523     10.70714300      3.96633111
   Si      6.95967002      0.02855546     10.70713977      3.96633155
   Si      4.48348446      0.03252928     10.67612174      3.93920907
   Si     21.39480892     14.52347002     11.51654989      4.05378714
   Si     17.21322117     14.52346977     11.51654971      4.05378752
   Si     13.64643329     14.44306192     11.50359217      4.07130502
   Si     24.96159634     14.44306128     11.50359281      4.07130524
   Si      9.65200824     12.11110755     11.46525499      4.06284467
   Si     19.30401427     11.19379013     11.86830264      4.22865683
   Si     15.34539595     11.33523790     11.51858887      4.05979183
   Si     11.50087713      9.07279517     11.48568734      4.05264905
   Si      7.80314006      9.07279649     11.48568644      4.05264899
   Si     23.26263350     11.33523695     11.51858929      4.05979175
   Si     17.41338904      7.80877544     11.31610379      3.81698022
   Si     13.57494008      5.48565735     11.48839150      4.04514111
   Si      9.65200729      5.59317637     11.88118572      4.23043765
   Si      5.72907553      5.48565569     11.48839105      4.04514141
   Si     21.19464118      7.80877566     11.31610400      3.81698059
   Si     15.33939449      2.38092604     11.45575653      4.05017840
   Si     11.75962702      2.27225052     11.48888669      4.04896364
   Si      7.54438852      2.27225021     11.48888704      4.04896405
   Si      3.96461981      2.38092469     11.45575567      4.05017817
   Si      5.75410272      3.38450383     12.89051216      3.92003694
   Si     13.54991145      3.38450613     12.89051289      3.92003729
   Si      9.65200930     10.06096890     12.88990743      3.92444100
   Si     19.30401491      6.88721110     12.40396210      4.21128869
   Si     15.43150142     13.42460588     12.93243519      3.91647745
   Si     23.17652710     13.42460460     12.93243664      3.91647823
