   61
Geometry Step: 0
    H     11.58240908      8.90630932      2.86193171      1.05668717
    H      7.71850805      8.91793037      2.86125925      1.05678238
    H     15.44631011      8.91793037      2.86125925      1.06256386
    H      9.66052267      5.57750442      2.86193170      1.05113115
    H      5.79120454      5.56194977      2.86140756      1.05765364
    H     13.50429548      5.57750442      2.86193170      1.05186047
    H      7.71239285      2.23435394      2.86140755      1.05711072
    H      3.87001622      2.23435394      2.86140755      1.05518605
    H     11.58240908      2.22545752      2.86125925      1.05563135
   Si     11.58240908      8.91614266      4.36424935      3.90345185
   Si      7.72160605      8.91614266      4.36424935      3.90126348
   Si     15.44321210      8.91614266      4.36424935      3.89133259
   Si      9.65200756      5.57258916      4.36424935      3.90266547
   Si      5.79120454      5.57258916      4.36424935      3.90562713
   Si     13.51281059      5.57258916      4.36424935      3.90288520
   Si      7.72160605      2.22903567      4.36424935      3.90492154
   Si      3.86080303      2.22903567      4.36424935      3.91237495
   Si     11.58240908      2.22903567      4.36424935      3.89989722
   Si      9.65200756      7.80162483      5.15233247      4.04783405
   Si      5.79120454      7.80162483      5.15233247      4.04820047
   Si     13.51281059      7.80162483      5.15233247      4.02750159
   Si      7.72160605      4.45807133      5.15233247      4.03299874
   Si      3.86080303      4.45807133      5.15233247      4.01957872
   Si     11.58240908      4.45807133      5.15233247      4.00225578
   Si      5.79120454      1.11451783      5.15233247      4.02497695
   Si      1.93040151      1.11451783      5.15233247      4.03890886
   Si      9.65200756      1.11451783      5.15233247      4.03347048
   Si      9.26730596      7.82129879      7.55450294      3.94048814
   Si      5.55783266      7.70484830      7.64880604      3.95561377
   Si     13.53094302      7.96446111      7.56664314      3.98969941
   Si      7.79229287      4.44434852      7.45758659      4.01382624
   Si      3.92555970      4.43345360      7.45866718      4.03284962
   Si     11.81601572      3.85434468      7.56998138      4.02459580
   Si      5.79448472      0.95619620      7.54190133      4.03516829
   Si      1.88276084      0.90216504      7.61586408      3.96637025
   Si      9.58753571      0.92343999      7.55482410      3.95817607
   Si     11.65667186      7.16491896      8.87185619      3.97843817
   Si      7.42790718      6.52122627      8.52991930      3.98942348
   Si      3.59371245      6.52862744      8.54645543      4.12357325
   Si      9.60124979      3.17145217      8.40909666      3.95741241
   Si      5.86802617      3.26068028      8.06269476      3.95859905
   Si      2.44050435      3.02352469      8.63630535      3.94296562
   Si      7.68026453      0.06738698      8.73823450      4.15075812
   Si      3.87864784     -0.10158851      8.56100850      3.99897028
   Si     -0.09336487     -0.11218406      8.58727806      4.18778488
   Si     10.35286558      5.67816111      7.45200985      3.96535678
   Si      7.67742472      5.72210873     10.84112177      4.02538862
   Si      1.40913488      5.22929764      9.59928853      3.89830149
   Si      9.54999585      4.02536560     10.70519137      4.00222085
   Si      6.34658178      4.38101954     12.43535838      3.99000533
   Si      0.19759564      4.23689949     11.64083728      4.04018115
   Si      7.13499196      1.59008039     11.53742817      3.99902334
   Si      4.97602724     -1.05733909     10.44210253      4.00041986
   Si      9.98813830      6.64320334     10.99664419      3.95450482
   Si     11.26947425      6.07379534     13.01263607      4.05622656
   Si      3.56866220      2.95364167     10.96814974      4.12054424
   Si      8.48265743      3.20283055     12.66523458      3.94991264
   Si      4.81909469      1.02350288     11.56882810      3.92850505
   Si     10.68825001      3.42289752     13.82301322      3.99972348
   Si      5.88155823      3.31895927     10.38334573      3.95506544
   Si     11.20896488      5.27873468     15.17998290      4.00515565
