  347
Geometry Step: 0
    H     34.73632494     22.28277837      2.86214087      1.05337564
    H     30.88069951     22.30131663      2.86187380      1.05397804
    H     27.02562121     22.28280097      2.86237968      1.05208210
    H     23.17054302     22.30131684      2.86187429      1.05397796
    H     19.31491734     22.28277865      2.86214155      1.05337559
    H     15.45245640     22.28501859      2.86036315      1.06102459
    H     38.59878576     22.28501841      2.86036282      1.06102463
    H     32.81676672     18.94676805      2.86223470      1.05274163
    H     28.95142158     18.94836699      2.86239507      1.05206626
    H     25.09982093     18.94836705      2.86239539      1.05206623
    H     21.23447563     18.94676811      2.86223556      1.05274160
    H     17.38562669     18.94114932      2.86214149      1.05337562
    H     13.51281059     18.90854763      2.86144512      1.05539904
    H     36.66561543     18.94114930      2.86214079      1.05337566
    H     30.88547882     15.59848148      2.86239480      1.05206625
    H     27.02562129     15.60324872      2.86173772      1.05426972
    H     23.16576360     15.59848151      2.86239522      1.05206630
    H     19.29738490     15.59281034      2.86187409      1.05397802
    H     15.44740783     15.58585289      2.86258902      1.05183407
    H     11.57821314     15.58585281      2.86258885      1.05183407
    H     34.75385735     15.59281046      2.86187352      1.05397801
    H     28.95967856     12.26289745      2.86239504      1.05206623
    H     25.09156398     12.26289739      2.86239514      1.05206630
    H     21.24095926     12.26347257      2.86237938      1.05208223
    H     17.36865995     12.26190618      2.86271648      1.05090670
    H     13.51281039     12.25236431      2.86149348      1.05422709
    H      9.65696114     12.26190617      2.86271644      1.05090658
    H     32.81028303     12.26347264      2.86237920      1.05208211
    H     27.02562122      8.91620987      2.86223559      1.05274148
    H     23.15246336      8.91561896      2.86187418      1.05397800
    H     19.30345306      8.91074633      2.86271646      1.05090676
    H     15.44473174      8.91701918      2.86262482      1.05110819
    H     11.58088912      8.91701924      2.86262489      1.05110810
    H      7.72216807      8.91074633      2.86271649      1.05090658
    H     30.89877911      8.91561904      2.86187411      1.05397791
    H     25.09633079      5.58581871      2.86214169      1.05337550
    H     21.22144955      5.58491998      2.86258899      1.05183424
    H     17.36726466      5.57625368      2.86149338      1.05422737
    H     13.51281048      5.57083328      2.86262502      1.05110810
    H      9.65835613      5.57625368      2.86149332      1.05422715
    H      5.80417176      5.58491998      2.86258890      1.05183408
    H     28.95491168      5.58581872      2.86214167      1.05337550
    H     23.13168825      2.24816285      2.86144515      1.05539913
    H     19.28685200      2.23409866      2.86258888      1.05183423
    H     15.44760362      2.23221915      2.86271669      1.05090665
    H     11.57801749      2.23221918      2.86271676      1.05090659
    H      7.73876907      2.23409892      2.86258896      1.05183406
    H      3.89393300      2.24816289      2.86144526      1.05539902
    H     27.02562124      2.23970957      2.86036326      1.06102453
   Si     34.74722723     22.29035666      4.36424935      3.90890270
   Si     30.88642420     22.29035666      4.36424935      3.90980854
   Si     27.02562118     22.29035666      4.36424935      3.90844626
   Si     23.16481815     22.29035666      4.36424935      3.90980855
   Si     19.30401513     22.29035666      4.36424935      3.90890268
   Si     15.44321210     22.29035666      4.36424935      3.89958474
   Si     38.60803025     22.29035666      4.36424935      3.89958472
   Si     32.81682571     18.94680316      4.36424935      3.90824401
   Si     28.95602269     18.94680316      4.36424935      3.90860551
   Si     25.09521966     18.94680316      4.36424935      3.90860554
   Si     21.23441664     18.94680316      4.36424935      3.90824401
   Si     17.37361361     18.94680316      4.36424935      3.90890258
   Si     13.51281059     18.94680316      4.36424935      3.91768885
   Si     36.67762874     18.94680316      4.36424935      3.90890251
   Si     30.88642420     15.60324966      4.36424935      3.90860544
   Si     27.02562118     15.60324966      4.36424935      3.90924450
   Si     23.16481815     15.60324966      4.36424935      3.90860544
   Si     19.30401513     15.60324966      4.36424935      3.90980851
   Si     15.44321210     15.60324966      4.36424935      3.90903466
   Si     11.58240908     15.60324966      4.36424935      3.90903463
   Si     34.74722723     15.60324966      4.36424935      3.90980848
   Si     28.95602269     12.25969616      4.36424935      3.90860544
   Si     25.09521966     12.25969616      4.36424935      3.90860544
   Si     21.23441664     12.25969616      4.36424935      3.90844607
   Si     17.37361361     12.25969616      4.36424935      3.90986956
   Si     13.51281059     12.25969616      4.36424935      3.90984989
   Si      9.65200756     12.25969616      4.36424935      3.90986958
   Si     32.81682571     12.25969616      4.36424935      3.90844606
   Si     27.02562118      8.91614266      4.36424935      3.90824419
   Si     23.16481815      8.91614266      4.36424935      3.90980841
   Si     19.30401513      8.91614266      4.36424935      3.90986946
   Si     15.44321210      8.91614266      4.36424935      3.90919340
   Si     11.58240908      8.91614266      4.36424935      3.90919352
   Si      7.72160605      8.91614266      4.36424935      3.90986950
   Si     30.88642420      8.91614266      4.36424935      3.90980839
   Si     25.09521966      5.57258916      4.36424935      3.90890287
   Si     21.23441664      5.57258916      4.36424935      3.90903455
   Si     17.37361361      5.57258916      4.36424935      3.90984978
   Si     13.51281059      5.57258916      4.36424935      3.90919344
   Si      9.65200756      5.57258916      4.36424935      3.90984986
   Si      5.79120454      5.57258916      4.36424935      3.90903454
   Si     28.95602269      5.57258916      4.36424935      3.90890278
   Si     23.16481815      2.22903567      4.36424935      3.91768881
   Si     19.30401513      2.22903567      4.36424935      3.90903458
   Si     15.44321210      2.22903567      4.36424935      3.90986964
   Si     11.58240908      2.22903567      4.36424935      3.90986963
   Si      7.72160605      2.22903567      4.36424935      3.90903460
   Si      3.86080303      2.22903567      4.36424935      3.91768883
   Si     27.02562118      2.22903567      4.36424935      3.89958466
   Si     32.81682571     21.17583883      5.15233247      4.03604910
   Si     28.95602269     21.17583883      5.15233247      4.03708273
   Si     25.09521966     21.17583883      5.15233247      4.03708262
   Si     21.23441664     21.17583883      5.15233247      4.03604909
   Si     17.37361361     21.17583883      5.15233247      4.03685081
   Si     13.51281059     21.17583883      5.15233247      4.01817338
   Si     36.67762874     21.17583883      5.15233247      4.03685076
   Si     30.88642420     17.83228533      5.15233247      4.02294630
   Si     27.02562118     17.83228533      5.15233247      4.03575056
   Si     23.16481815     17.83228533      5.15233247      4.02294617
   Si     19.30401513     17.83228533      5.15233247      4.03604913
   Si     15.44321210     17.83228533      5.15233247      4.03556528
   Si     11.58240908     17.83228533      5.15233247      4.03556569
   Si     34.74722723     17.83228533      5.15233247      4.03604934
   Si     28.95602269     14.48873183      5.15233247      4.03575110
   Si     25.09521966     14.48873183      5.15233247      4.03575065
   Si     21.23441664     14.48873183      5.15233247      4.03708277
   Si     17.37361361     14.48873183      5.15233247      4.02076395
   Si     13.51281059     14.48873183      5.15233247      4.03740589
   Si      9.65200756     14.48873183      5.15233247      4.02076425
   Si     32.81682571     14.48873183      5.15233247      4.03708344
   Si     27.02562118     11.14517833      5.15233247      4.02294622
   Si     23.16481815     11.14517833      5.15233247      4.03708286
   Si     19.30401513     11.14517833      5.15233247      4.03972410
   Si     15.44321210     11.14517833      5.15233247      4.03674888
   Si     11.58240908     11.14517833      5.15233247      4.03674963
   Si      7.72160605     11.14517833      5.15233247      4.03972482
   Si     30.88642420     11.14517833      5.15233247      4.03708344
   Si     25.09521966      7.80162483      5.15233247      4.03604860
   Si     21.23441664      7.80162483      5.15233247      4.02076390
   Si     17.37361361      7.80162483      5.15233247      4.03674913
   Si     13.51281059      7.80162483      5.15233247      4.01966911
   Si      9.65200756      7.80162483      5.15233247      4.03674979
   Si      5.79120454      7.80162483      5.15233247      4.02076435
   Si     28.95602269      7.80162483      5.15233247      4.03604879
   Si     23.16481815      4.45807133      5.15233247      4.03556535
   Si     19.30401513      4.45807133      5.15233247      4.03740635
   Si     15.44321210      4.45807133      5.15233247      4.03674906
   Si     11.58240908      4.45807133      5.15233247      4.03674898
   Si      7.72160605      4.45807133      5.15233247      4.03740644
   Si      3.86080303      4.45807133      5.15233247      4.03556599
   Si     27.02562118      4.45807133      5.15233247      4.03685027
   Si     21.23441664      1.11451783      5.15233247      4.03556515
   Si     17.37361361      1.11451783      5.15233247      4.02076381
   Si     13.51281059      1.11451783      5.15233247      4.03972408
   Si      9.65200756      1.11451783      5.15233247      4.02076393
   Si      5.79120454      1.11451783      5.15233247      4.03556540
   Si      1.93040151      1.11451783      5.15233247      4.01817349
   Si     25.09521966      1.11451783      5.15233247      4.01817343
   Si     32.81682571     21.17583883      7.51658182      4.00744994
   Si     28.95602269     21.17583883      7.51658182      4.01276546
   Si     25.09521966     21.17583883      7.51658182      4.01276554
   Si     21.23441664     21.17583883      7.51658182      4.00745015
   Si     17.37361361     21.17583883      7.51658182      4.00270728
   Si     13.51281059     21.17583883      7.51658182      3.98678359
   Si     36.67762874     21.17583883      7.51658182      4.00270693
   Si     30.88642420     17.83228533      7.51658182      4.02071693
   Si     27.02562118     17.83228533      7.51658182      4.01284092
   Si     23.16481815     17.83228533      7.51658182      4.02071668
   Si     19.30401513     17.83228533      7.51658182      4.00744994
   Si     15.44321210     17.83228533      7.51658182      4.03523944
   Si     11.58240908     17.83228533      7.51658182      4.03523950
   Si     34.74722723     17.83228533      7.51658182      4.00744944
   Si     28.95602269     14.48873183      7.51658182      4.01284077
   Si     25.09521966     14.48873183      7.51658182      4.01284085
   Si     21.23441664     14.48873183      7.51658182      4.01276548
   Si     17.37361361     14.48873183      7.51658182      3.99070550
   Si     13.51281059     14.48873183      7.51658182      4.00769285
   Si      9.65200756     14.48873183      7.51658182      3.99070535
   Si     32.81682571     14.48873183      7.51658182      4.01276517
   Si     27.02562118     11.14517833      7.51658182      4.02071683
   Si     23.16481815     11.14517833      7.51658182      4.01276505
   Si     19.30401513     11.14517833      7.51658182      4.03227467
   Si     15.44321210     11.14517833      7.51658182      4.01284949
   Si     11.58240908     11.14517833      7.51658182      4.01284945
   Si      7.72160605     11.14517833      7.51658182      4.03227422
   Si     30.88642420     11.14517833      7.51658182      4.01276479
   Si     25.09521966      7.80162483      7.51658182      4.00745073
   Si     21.23441664      7.80162483      7.51658182      3.99070525
   Si     17.37361361      7.80162483      7.51658182      4.01284935
   Si     13.51281059      7.80162483      7.51658182      4.02737277
   Si      9.65200756      7.80162483      7.51658182      4.01284913
   Si      5.79120454      7.80162483      7.51658182      3.99070520
   Si     28.95602269      7.80162483      7.51658182      4.00745039
   Si     23.16481815      4.45807133      7.51658182      4.03523925
   Si     19.30401513      4.45807133      7.51658182      4.00769289
   Si     15.44321210      4.45807133      7.51658182      4.01284967
   Si     11.58240908      4.45807133      7.51658182      4.01284953
   Si      7.72160605      4.45807133      7.51658182      4.00769262
   Si      3.86080303      4.45807133      7.51658182      4.03523893
   Si     27.02562118      4.45807133      7.51658182      4.00270753
   Si     21.23441664      1.11451783      7.51658182      4.03523940
   Si     17.37361361      1.11451783      7.51658182      3.99070561
   Si     13.51281059      1.11451783      7.51658182      4.03227444
   Si      9.65200756      1.11451783      7.51658182      3.99070566
   Si      5.79120454      1.11451783      7.51658182      4.03523902
   Si      1.93040151      1.11451783      7.51658182      3.98678299
   Si     25.09521966      1.11451783      7.51658182      3.98678310
   Si     34.74700092     20.06119191      8.07031050      3.91020516
   Si     30.88924606     20.06299096      8.39532384      4.00543554
   Si     27.02562092     20.06062000      8.04274822      3.88153612
   Si     23.16199557     20.06299115      8.39532466      4.00543563
   Si     19.30424178     20.06119177      8.07031959      3.91021064
   Si     15.44305935     20.04020378      8.34529201      3.99086600
   Si     11.58256253     20.04020382      8.34529166      3.99086594
   Si     32.81968160     16.71937921      8.39532168      4.00543433
   Si     28.96853101     16.72499129      8.39706708      4.00881484
   Si     25.08271089     16.72499162      8.39706802      4.00881540
   Si     21.23156036     16.71938001      8.39532369      4.00543503
   Si     17.35644716     16.74778055      8.37815822      4.01878825
   Si     13.51281080     16.72115183      8.05287511      3.88393876
   Si      9.66917426     16.74777924      8.37815623      4.01878827
   Si     30.88581589     13.37456642      8.04274031      3.88153943
   Si     27.02562123     13.35977148      8.39706761      4.00881464
   Si     23.16542656     13.37456677      8.04274942      3.88153458
   Si     19.31812371     13.34861005      8.36955441      4.01567379
   Si     15.45469849     13.38289778      8.39531254      4.01459690
   Si     11.57092265     13.38289779      8.39531099      4.01459742
   Si      7.70749753     13.34861001      8.36955173      4.01567357
   Si     28.95605610     10.02738280      8.39532279      4.00543529
   Si     25.09518654     10.02738278      8.39532399      4.00543581
   Si     21.21929570     10.05568327      8.36955484      4.01567389
   Si     17.37452215     10.03118666      8.03184419      3.87325149
   Si     13.51281057     10.02758293      8.39430168      4.00727881
   Si      9.65109890     10.03118677      8.03183370      3.87325423
   Si      5.80632528     10.05568328      8.36955171      4.01567373
   Si     27.02562123      6.68736989      8.07032061      3.91020406
   Si     23.18222668      6.65723665      8.37815874      4.01878807
   Si     19.31727741      6.69271527      8.39531387      4.01459810
   Si     15.44054521      6.68864808      8.39430290      4.00727939
   Si     11.58507576      6.68864797      8.39430079      4.00727895
   Si      7.70834396      6.69271559      8.39530961      4.01459738
   Si      3.84339475      6.65723731      8.37815623      4.01878835
   Si     25.07685443      3.35398285      8.34529275      3.99086622
   Si     21.23734649      3.34186360      8.05287900      3.88394220
   Si     17.37538902      3.32926633      8.39531465      4.01459815
   Si     13.51281062      3.34250553      8.03184144      3.87325290
   Si      9.65023253      3.32926635      8.39531195      4.01459688
   Si      5.78827446      3.34186322      8.05287010      3.88393989
   Si      1.94876658      3.35398280      8.34529219      3.99086644
   Si     23.14660597      0.01069409      8.34529277      3.99086547
   Si     19.33858781     -0.00013683      8.37815874      4.01878759
   Si     15.41398204      0.00058612      8.36955598      4.01567395
   Si     11.61163903      0.00058586      8.36955554      4.01567393
   Si      7.68703305     -0.00013781      8.37815821      4.01878784
   Si      3.87901547      0.01069339      8.34529255      3.99086577
   Si      0.00000011      0.00000233      8.57565043      4.29807472
   Si     34.70610298     20.03757571     10.34537501      4.04459822
   Si     30.91370225     20.05742255     10.83607313      3.90946629
   Si     27.02562210     20.01321452     10.30610512      4.03895214
   Si     23.13753854     20.05742495     10.83607499      3.90946684
   Si     19.34513825     20.03757971     10.34537773      4.04459730
   Si     15.77176404     19.51569910     10.66994767      3.93330937
   Si     11.25385609     19.51569719     10.66994609      3.93330850
   Si     32.82708910     16.74334222     10.83606877      3.90946543
   Si     29.07068384     16.78396806     10.84028182      3.94526561
   Si     24.98056041     16.78396897     10.84028384      3.94526504
   Si     21.22415340     16.74334590     10.83607338      3.90946531
   Si     17.00864693     17.37981710     10.69810650      3.96650847
   Si     13.51280941     16.66427449     10.31722954      4.04252135
   Si     10.01697329     17.37981445     10.69810366      3.96650801
   Si     30.84476543     13.39826732     10.30610075      4.03895428
   Si     27.02562291     13.24181686     10.84028250      3.94526447
   Si     23.20647994     13.39826798     10.30609941      4.03895349
   Si     19.66852387     12.76976796     10.69380759      3.97657301
   Si     15.42931880     13.39445843     10.82882902      3.91313851
   Si     11.59629803     13.39445950     10.82882614      3.91313942
   Si      7.35709638     12.76976772     10.69380178      3.97657449
   Si     28.93900828     10.00898663     10.83607067      3.90946530
   Si     25.11223859     10.00898744     10.83607341      3.90946470
   Si     20.89320247     10.64855940     10.69380809      3.97657296
   Si     17.33872601     10.01051960     10.28651428      4.03461516
   Si     13.51280945     10.16852758     10.82507483      3.94869618
   Si      9.68689232     10.01051916     10.28651252      4.03461500
   Si      6.13241799     10.64855928     10.69380178      3.97657458
   Si     27.02562406      6.73459754     10.34537606      4.04459447
   Si     23.55569044      6.04001678     10.69810732      3.96650791
   Si     19.31460210      6.66495437     10.82883172      3.91313827
   Si     15.56260522      6.61817590     10.82507709      3.94869526
   Si     11.46301285      6.61817541     10.82507360      3.94869668
   Si      7.71101895      6.66495623     10.82882434      3.91313939
   Si      3.46993264      6.04001892     10.69810339      3.96650830
   Si     24.78697375      3.90090317     10.66994846      3.93330881
   Si     21.18809160      3.37030259     10.31723329      4.04252211
   Si     17.39809123      3.34546120     10.82883279      3.91313980
   Si     13.51280876      3.38383918     10.28651801      4.03461412
   Si      9.62753023      3.34546441     10.82882827      3.91314006
   Si      5.83753077      3.37030463     10.31722911      4.04252187
   Si      2.23864919      3.90090539     10.66994608      3.93330898
   Si     22.52801994     -0.01172127     10.66994885      3.93330931
   Si     20.05984607     -0.01495410     10.69810823      3.96650912
   Si     14.73749095     -0.01344872     10.69380930      3.97657577
   Si     12.28812903     -0.01344860     10.69380880      3.97657583
   Si      6.96577517     -0.01495402     10.69810712      3.96650996
   Si      4.49760192     -0.01172089     10.66994803      3.93331036
   Si     32.97930031     21.17871466     11.52182967      4.06172750
   Si     28.80282206     21.14196780     11.46203758      4.04273944
   Si     25.24842134     21.14196762     11.46203648      4.04273856
   Si     21.07193955     21.17871613     11.52183247      4.06173431
   Si     17.51391572     21.09483530     11.50292215      4.07074675
   Si     36.53732842     21.09483404     11.50291903      4.07074123
   Si     13.51280921     18.78861174     11.45138227      4.05798599
   Si     30.95134590     17.86976471     11.91576436      4.25111590
   Si     27.02562301     17.93050867     11.43757883      4.01971534
   Si     23.09989898     17.86976794     11.91576502      4.25111596
   Si     19.22028372     17.97155552     11.52183327      4.06173648
   Si     15.37344553     15.75349551     11.48452643      4.05102605
   Si     11.65217233     15.75349463     11.48452517      4.05102736
   Si     34.83095777     17.97154814     11.52182915      4.06173041
   Si     29.04109007     14.43961891     11.43757272      4.01972163
   Si     25.01015834     14.43962030     11.43757770      4.01971548
   Si     21.34034670     14.37299444     11.46203800      4.04273992
   Si     17.43486524     12.11468931     11.43297505      4.03780342
   Si     13.51280695     12.33608107     11.91004782      4.24754034
   Si      9.59075230     12.11468611     11.43296602      4.03780656
   Si     32.71089684     14.37299192     11.46203193      4.04274517
   Si     27.02562520     11.07021401     11.91576210      4.25111706
   Si     23.11755155     11.29478505     11.46203875      4.04274122
   Si     19.20905729      9.04169718     11.43297657      4.03780389
   Si     15.53163941      8.96720105     11.41087559      4.01503211
   Si     11.49397636      8.96720126     11.41086782      4.01503538
   Si      7.81656247      9.04169842     11.43296640      4.03780655
   Si     30.93369395     11.29478630     11.46203162      4.04274577
   Si     25.17396889      7.65947893     11.52182778      4.06172524
   Si     21.32965231      5.43705182     11.48453397      4.05103355
   Si     17.43975985      5.53440140     11.91005086      4.24753999
   Si     13.51280807      5.47048200     11.41087421      4.01503246
   Si      9.58585774      5.53440348     11.91004779      4.24754013
   Si      5.69597050      5.43705495     11.48452475      4.05103065
   Si     28.87727941      7.65948048     11.52182652      4.06172613
   Si     23.02782104      2.30813592     11.45138659      4.05798888
   Si     19.46901453      2.21433509     11.48453376      4.05103130
   Si     15.28699778      2.24849930     11.43297428      4.03780321
   Si     11.73861916      2.24849901     11.43297310      4.03780259
   Si      7.55660777      2.21433733     11.48452573      4.05102697
   Si      3.99780236      2.30813876     11.45138083      4.05798670
   Si     27.02562314      4.62008236     11.50291807      4.07073958
   Si      5.77047109      3.33158791     12.87605883      3.92160738
   Si     13.51280691      3.35355200     12.80559063      3.90052686
   Si     21.25515380      3.33158247     12.87606754      3.92160881
   Si      9.66066171     10.02566368     12.80558364      3.90053074
   Si     17.36495423     10.02566488     12.80559648      3.90052450
   Si     13.51280770     16.74170790     12.87605568      3.92160523
   Si     27.02562568      6.67024577     12.93623332      3.92011771
   Si     23.17911080     13.38246799     12.83759958      3.89706234
   Si     30.87213615     13.38246582     12.83758940      3.89707106
   Si     19.28940742     20.06975713     12.93624761      3.92012703
   Si     27.02562157     20.04481955     12.83759337      3.89706419
   Si     34.76183409     20.06975139     12.93624555      3.92011969
