  MPI-parallelism will be employed.
------------------------------------------------------------
          Invoking FHI-aims ...
          Version 081912
          Compiled on 2013/02/12 at 10:24:31 on host mungmung.

          When using FHI-aims, please cite the following reference:

          Volker Blum, Ralf Gehrke, Felix Hanke, Paula Havu,
          Ville Havu, Xinguo Ren, Karsten Reuter, and Matthias Scheffler,
          'Ab Initio Molecular Simulations with Numeric Atom-Centered Orbitals: FHI-aims',
          Computer Physics Communications 180, 2175-2196 (2009)

------------------------------------------------------------

  Date     :  20131111, Time     :  191748.882
  Time zero on CPU 1             :   0.160000000000000E-01  s.
  Internal wall clock time zero  :           153429468.882  s.

  Using        8 parallel tasks.
  Task        0 on host metcalf reporting.
  Task        1 on host metcalf reporting.
  Task        2 on host metcalf reporting.
  Task        3 on host metcalf reporting.
  Task        4 on host metcalf reporting.
  Task        5 on host metcalf reporting.
  Task        6 on host metcalf reporting.
  Task        7 on host metcalf reporting.

  Performing system and environment tests:
  | Environment variable OMP_NUM_THREADS correctly set to 1.
  | Checking for scalapack...
  | No scalapack compiled in.

  Obtaining array dimensions for all initial allocations:
  
  -----------------------------------------------------------------------
  Parsing control.in (first pass over file, find array dimensions only).
  The contents of control.in will be repeated verbatim below
  unless switched off by setting 'verbatim_writeout .false.' .
  in the first line of control.in .
  -----------------------------------------------------------------------
  
  #########################################################################################
  #
  #  Volker Blum, FHI 2010 : Input file for FHI-aims
  #
  #  Input file control.in : All computational details for fcc Al
  #
  #########################################################################################
    #
    #  Physical model settings
    #
      xc               pbe
      charge           0
  #    spin             collinear
       spin      none
  #    fixed_spin_moment  1
      relativistic     none
  #    relativistic       atomic_zora scalar 1e-9
  #    default_initial_moment   0.005
  #    override_illconditioning   .true.
    #
    #  SCF convergence settings
    #
      occupation_type  gaussian 0.1
      mixer            pulay
        n_max_pulay             10
        charge_mix_param        0.2
        # ini_linear_mixing     10
        # ini_linear_mix_param  0.05
        # preconditioner kerker 1.5
        # precondition_max_l    0
        # preconditioner turnoff charge 1e-4
        # preconditioner turnoff sum_ev 1e-1
      sc_accuracy_rho  1E-4
      sc_accuracy_eev  1E-2
      sc_accuracy_etot 1E-4
      sc_iter_limit    400
    #
    #  For periodic boundary conditions
    #
      k_grid 3 3 1
    #
  restart restart.dat
    #  For relaxation:
    #
      relax_geometry bfgs 1.e-2
  #    relax_unit_cell full
      sc_accuracy_forces  5E-4
  
  #  output cube total_density
  #    cube origin 0.0 0.0 0.0
  #    cube edge 100 0.15 0.0 0.0
  #    cube edge 100 0.0 0.15 0.0
  #    cube edge 100 0.0 0.0 0.15
  
  # output cube stm 1.5
  #    cube origin 0.0 0.0 0.0
  #    cube edge 100 0.26878 0.00000 0.00000
  #    cube edge 100 0.13439 0.23277 0.00000
  #    cube edge 300 0.00000 0.00000 0.05000
  #output cube stm -1.5
  
    #
    #  Output options (examples):
    #
    #  Density of states. The DOS is here evaluated
    #  with an effective 60x60x60 k-point grid.
    #  (12 for each k-space direction in s.c.f., and then denser
    #  by a factor of 5 during post-processing). Check whether the
    #  the DOS is smooth, however - fcc Al may need significantly
    #  more k-points (van Hove singularities in DOS).
    #
  #    output dos -20 30 1000 0.05
  #    dos_kgrid_factors  5 5 5
    #
    #  angular momentum channel resolved density of states
    #
  #    output atom_proj_dos -20 30 1000 0.1
    #
    #  High-symmetry k-points for fcc band structure output, if requested.
    #
  #    output band  0.25  0.50  0.75  0.5   0.5   0.5   40	W      L
  #    output band  0.5   0.5   0.5   0.25  0.25  0.25  40	L      Lambda
  #    output band  0.25  0.25  0.25  0     0     0     40	Lambda Gamma
  #    output band  0     0       0   0.00  0.25  0.25  40	Gamma  Delta
  #    output band  0.00  0.25  0.25  0     0.5   0.5   40	Delta  X
  #    output band  0     0.5   0.5   0.125 0.5   0.625 40	X      Z
  #    output band  0.125 0.5   0.625 0.25  0.50  0.75  40	Z      W
  #    output band  0.25  0.50  0.75  0.375 0.375 0.75  40	W      K
  
  ################################################################################
  #
  #  FHI-aims code project
  #  VB, Fritz-Haber Institut, 2009
  #
  #  Suggested "light" defaults for Si atom (to be pasted into control.in file)
  #  Be sure to double-check any results obtained with these settings for post-processing,
  #  e.g., with the "tight" defaults and larger basis sets.
  #
  ################################################################################
    species        Si
  #     global species definitions
      nucleus             14
      mass                28.0855
  #
      l_hartree           4
  #
      cut_pot             3.5          1.5  1.0
      basis_dep_cutoff    1e-4
  #
      radial_base         42 5.0
      radial_multiplier   1
      angular_grids       specified
        division   0.5866   50
        division   0.9616  110
        division   1.2249  194
        division   1.3795  302
  #      division   1.4810  434
  #      division   1.5529  590
  #      division   1.6284  770
  #      division   1.7077  974
  #      division   2.4068 1202
  #      outer_grid   974
        outer_grid 302
  ################################################################################
  #
  #  Definition of "minimal" basis
  #
  ################################################################################
  #     valence basis states
      valence      3  s   2.
      valence      3  p   2.
  #     ion occupancy
      ion_occ      3  s   1.
      ion_occ      3  p   1.
  ################################################################################
  #
  #  Suggested additional basis functions. For production calculations,
  #  uncomment them one after another (the most important basis functions are
  #  listed first).
  #
  #  Constructed for dimers: 1.75 A, 2.0 A, 2.25 A, 2.75 A, 3.75 A
  #
  ################################################################################
  #  "First tier" - improvements: -571.96 meV to -37.03 meV
       hydro 3 d 4.2
       hydro 2 p 1.4
       hydro 4 f 6.2
       ionic 3 s auto
  #  "Second tier" - improvements: -16.76 meV to -3.03 meV
  #     hydro 3 d 9
  #     hydro 5 g 9.4
  #     hydro 4 p 4
  #     hydro 1 s 0.65
  #  "Third tier" - improvements: -3.89 meV to -0.60 meV
  #     ionic 3 d auto
  #     hydro 3 s 2.6
  #     hydro 4 f 8.4
  #     hydro 3 d 3.4
  #     hydro 3 p 7.8
  #  "Fourth tier" - improvements: -0.33 meV to -0.11 meV
  #     hydro 2 p 1.6
  #     hydro 5 g 10.8
  #     hydro 5 f 11.2
  #     hydro 3 d 1
  #     hydro 4 s 4.5
  #  Further basis functions that fell out of the optimization - noise
  #  level... < -0.08 meV
  #     hydro 4 d 6.6
  #     hydro 5 g 16.4
  #     hydro 4 d 9
  ################################################################################
  #
  #  FHI-aims code project
  # Volker Blum, Fritz Haber Institute Berlin, 2009
  #
  #  Suggested "tight" defaults for H atom (to be pasted into control.in file)
  #
  ################################################################################
    species        H
  #     global species definitions
      nucleus             1
      mass                1.00794
  #
      l_hartree           6
  #
      cut_pot             4.0  2.0  1.0
      basis_dep_cutoff    1e-4
  #
      radial_base         24 7.0
      radial_multiplier   2
      angular_grids       specified
        division   0.1930   50
        division   0.3175  110
        division   0.4293  194
        division   0.5066  302
        division   0.5626  434
  #      division   0.5922  590
  #      division   0.6227  974
  #      division   0.6868 1202
  #      outer_grid  770
        outer_grid  434
  ################################################################################
  #
  #  Definition of "minimal" basis
  #
  ################################################################################
  #     valence basis states
      valence      1  s   1.
  #     ion occupancy
      ion_occ      1  s   0.5
  ################################################################################
  #
  #  Suggested additional basis functions. For production calculations,
  #  uncomment them one after another (the most important basis functions are
  #  listed first).
  #
  #  Basis constructed for dimers: 0.5 A, 0.7 A, 1.0 A, 1.5 A, 2.5 A
  #
  ################################################################################
  #  "First tier" - improvements: -1014.90 meV to -62.69 meV
       hydro 2 s 2.1
       hydro 2 p 3.5
  #  "Second tier" - improvements: -12.89 meV to -1.83 meV
  #     hydro 1 s 0.85
  #     hydro 2 p 3.7
  #     hydro 2 s 1.2
  #     hydro 3 d 7
  #  "Third tier" - improvements: -0.25 meV to -0.12 meV
  #     hydro 4 f 11.2
  #     hydro 3 p 4.8
  #     hydro 4 d 9
  #     hydro 3 s 3.2
  
  -----------------------------------------------------------------------
  Completed first pass over input file control.in .
  -----------------------------------------------------------------------
  
  
  -----------------------------------------------------------------------
  Parsing geometry.in (first pass over file, find array dimensions only).
  The contents of geometry.in will be repeated verbatim below
  unless switched off by setting 'verbatim_writeout .false.' .
  in the first line of geometry.in .
  -----------------------------------------------------------------------
  
  #=======================================================
  #FHI-aims file: geometry.in
  #Created using the Atomic Simulation Environment (ASE)
  #=======================================================
  lattice_vector 7.7216060505570994 0.0000000000000000 0.0000000000000000
  lattice_vector 3.8608030252785497 6.6871069977980753 0.0000000000000000
  lattice_vector 0.0000000000000000 0.0000000000000000 30.9735792314329466
  atom 0.0000000000000000 2.2290356659326918 2.7999999999999998 H
  atom 3.8608030252785497 2.2290356659326918 2.7999999999999998 H
  atom 1.9304015126392746 5.5725891648317285 2.7999999999999998 H
  atom 5.7912045379178245 5.5725891648317285 2.7999999999999998 H
  atom 0.0000000000000000 2.2290356659326918 4.3642493523315178 Si
  constrain_relaxation .true.
  atom 3.8608030252785497 2.2290356659326918 4.3642493523315178 Si
  constrain_relaxation .true.
  atom 1.9304015126392746 5.5725891648317285 4.3642493523315178 Si
  constrain_relaxation .true.
  atom 5.7912045379178245 5.5725891648317285 4.3642493523315178 Si
  constrain_relaxation .true.
  atom 0.0000000000000000 0.0000000000000000 5.1523324697753576 Si
  constrain_relaxation .true.
  atom 3.8608030252785497 0.0000000000000000 5.1523324697753576 Si
  constrain_relaxation .true.
  atom 1.9304015126392748 3.3435534988990376 5.1523324697753576 Si
  constrain_relaxation .true.
  atom 5.7912045379178245 3.3435534988990376 5.1523324697753576 Si
  constrain_relaxation .true.
  atom 0.0000000000000000 0.0000000000000000 7.5165818221068754 Si
  constrain_relaxation .true.
  atom 3.8608030252785497 0.0000000000000000 7.5165818221068754 Si
  constrain_relaxation .true.
  atom 1.9304015126392748 3.3435534988990376 7.5165818221068754 Si
  constrain_relaxation .true.
  atom 5.7912045379178245 3.3435534988990376 7.5165818221068754 Si
  constrain_relaxation .true.
  atom 1.9304015126392748 1.1145178329663459 8.3046649395507153 Si
  constrain_relaxation .true.
  atom 5.7912045379178245 1.1145178329663459 8.3046649395507153 Si
  constrain_relaxation .true.
  atom 3.8608030252785497 4.4580713318653835 8.3046649395507153 Si
  constrain_relaxation .true.
  atom 7.7216060505570994 4.4580713318653835 8.3046649395507153 Si
  constrain_relaxation .true.
  atom 1.9304015126392748 1.1145178329663459 10.6689142918822313 Si
  atom 5.7912045379178245 1.1145178329663459 10.6689142918822313 Si
  atom 3.8608030252785497 4.4580713318653835 10.6689142918822313 Si
  atom 7.7216060505570994 4.4580713318653835 10.6689142918822313 Si
  atom 0.0000000000000000 2.2290356659326918 11.4569974093260711 Si
  atom 3.8608030252785497 2.2290356659326918 11.4569974093260711 Si
  atom 1.9304015126392746 5.5725891648317285 11.4569974093260711 Si
  atom 5.7912045379178245 5.5725891648317285 11.4569974093260711 Si
  atom 0.0000000000000000 2.2290356659326918 13.8212467616575907 Si
  atom 3.8608030252785497 2.2290356659326918 13.8212467616575907 Si
  atom 1.9304015126392746 5.5725891648317285 13.8212467616575907 Si
  atom 5.7912045379178245 5.5725891648317285 13.8212467616575907 Si
  atom 0.0000000000000000 0.0000000000000000 14.6093298791014305 Si
  atom 3.8608030252785497 0.0000000000000000 14.6093298791014305 Si
  atom 1.9304015126392748 3.3435534988990376 14.6093298791014305 Si
  atom 5.7912045379178245 3.3435534988990376 14.6093298791014305 Si
  atom 0.0000000000000000 0.0000000000000000 16.1735792314329458 H
  atom 3.8608030252785497 0.0000000000000000 16.1735792314329458 H
  atom 1.9304015126392748 3.3435534988990376 16.1735792314329458 H
  atom 5.7912045379178245 3.3435534988990376 16.1735792314329458 H
  
  -----------------------------------------------------------------------
  Completed first pass over input file geometry.in .
  -----------------------------------------------------------------------
  
 
  Basic array size parameters: 
  | Number of species                 :        2
  | Number of atoms                   :       40
  | Number of lattice vectors         :        3
  | Max. basis fn. angular momentum   :        3
  | Max. atomic/ionic basis occupied n:        3
  | Max. number of basis fn. types    :        3
  | Max. radial fns per species/type  :        5
  | Max. logarithmic grid size        :     1346
  | Max. radial integration grid size :       49
  | Max. angular integration grid size:      434
  | Max. angular grid division number :        8
  | Radial grid for Hartree potential :     1346
  | Number of spin channels           :        1

------------------------------------------------------------
          Reading file control.in.
------------------------------------------------------------
  XC: Using PBE gradient-corrected functionals.
  Charge =   0.000000E+00: Neutral system requested explicitly.
  Spin treatment: No spin polarisation.
  Non-relativistic treatment of kinetic energy.
  Occupation type: Gaussian broadening, width =   0.100000E+00 eV.
  Using pulay charge density mixing.
  Pulay mixing - number of memorized iterations:   10
  Charge density mixing - mixing parameter:     0.2000
  Convergence accuracy of self-consistent charge density: 0.1000E-03
  Convergence accuracy of sum of eigenvalues: 0.1000E-01
  Convergence accuracy of total energy: 0.1000E-03
  Maximum number of s.-c. iterations  :   400
  Found k-point grid:         3         3         1
  Restart file specified as : restart.dat000
  | This file does not exist, will create it after the first complete scf cycle.
  Geometry relaxation: Modified BFGS - TRM (trust radius method, i.e., trusted quadratic extrapolation).
  Convergence accuracy for geometry relaxation: Maximum force <   0.100000E-01 eV/A.
  Convergence accuracy of forces: 0.5000E-03
 
  Reading configuration options for species Si                  .
  | Found nuclear charge :  14.0000
  | Found atomic mass :    28.0855000000000      amu
  | Found l_max for Hartree potential  :   4
  | Found cutoff potl. onset [A], width [A], scale factor :    3.50000    1.50000    1.00000
  | Threshold for basis-dependent cutoff potential is   0.100000E-03
  | Found data for basic radial integration grid :    42 points, outermost radius =    5.000 A
  | Found multiplier for basic radial grid :   1
  | Found angular grid specification: user-specified.
  | Specified grid contains     5 separate shells.
  | Check grid settings after all constraints further below.
  | Found free-atom valence shell :  3 s   2.000
  | Found free-atom valence shell :  3 p   2.000
  | Found free-ion valence shell :  3 s   1.000
  | Found free-ion valence shell :  3 p   1.000
  | Found hydrogenic basis function :  3 d   4.200
  | Found hydrogenic basis function :  2 p   1.400
  | Found hydrogenic basis function :  4 f   6.200
  | Found ionic basis function :  3 s , default cutoff radius.
  Species Si                  : Missing cutoff potential type.
  Defaulting to exp(1/x)/(1-x)^2 type cutoff potential.
  Species Si: No 'logarithmic' tag. Using default grid for free atom:
  | Default logarithmic grid data [bohr] : 0.1000E-03 0.1000E+03 0.1012E+01
  | Will include ionic basis functions of  2.0-fold positive Si                   ion.
  Species Si: On-site basis accuracy parameter (for Gram-Schmidt orthonormalisation) not specified.
  Using default value basis_acc =  0.1000000E-03.
  Species Si                  : Using default innermost maximum threshold i_radial=  2 for radial functions.
  Species Si                  : Default cutoff onset for free atom density etc. : 0.35000000E+01 AA.
  Species Si                  : Basic radial grid will be enhanced according to radial_multiplier =   1, to contain    42 grid points.
 
  Reading configuration options for species H                   .
  | Found nuclear charge :   1.0000
  | Found atomic mass :    1.00794000000000      amu
  | Found l_max for Hartree potential  :   6
  | Found cutoff potl. onset [A], width [A], scale factor :    4.00000    2.00000    1.00000
  | Threshold for basis-dependent cutoff potential is   0.100000E-03
  | Found data for basic radial integration grid :    24 points, outermost radius =    7.000 A
  | Found multiplier for basic radial grid :   2
  | Found angular grid specification: user-specified.
  | Specified grid contains     6 separate shells.
  | Check grid settings after all constraints further below.
  | Found free-atom valence shell :  1 s   1.000
  | Found free-ion valence shell :  1 s   0.500
  | Found hydrogenic basis function :  2 s   2.100
  | Found hydrogenic basis function :  2 p   3.500
  Species H                   : Missing cutoff potential type.
  Defaulting to exp(1/x)/(1-x)^2 type cutoff potential.
  Species H : No 'logarithmic' tag. Using default grid for free atom:
  | Default logarithmic grid data [bohr] : 0.1000E-03 0.1000E+03 0.1012E+01
  Species H : On-site basis accuracy parameter (for Gram-Schmidt orthonormalisation) not specified.
  Using default value basis_acc =  0.1000000E-03.
  Species H                   : Using default innermost maximum threshold i_radial=  2 for radial functions.
  Species H                   : Default cutoff onset for free atom density etc. : 0.40000000E+01 AA.
  Species H                   : Basic radial grid will be enhanced according to radial_multiplier =   2, to contain    49 grid points.
 
  Finished reading input file 'control.in'. Consistency checks are next.
 
  Target number of points in a grid batch is not set. Defaulting to  100
  Method for grid partitioning is not set. Defaulting to parallel hash+maxmin partitioning.
  Batch size limit is not set. Defaulting to    200
  By default, will store active basis functions for each batch.
  If in need of memory, prune_basis_once .false. can be used to disable this option.
  communication_type for Hartree potential was not specified.
  Defaulting to calc_hartree .
  Pulay mixer: Number of initial linear mixing iterations not set.
  Defaulting to    0 iterations.
  Work space size for distributed Hartree potential not set.
  Defaulting to   0.200000E+03 MB.
  Algorithm-dependent basis array size parameters:
  | n_max_pulay                         :       10
  No maximum number of relaxation steps, defaulting to     1000
  Default initial Hessian is Lindh matrix (thres = 15.00) plus  0.200000E+01 eV/A^2 times unity.
  No maximum energy tolerance for TRM/BFGS moves, defaulting to   0.200000E-03
  No harmonic length scale. Defaulting to   0.250000E-01 A.
  No trust radius initializer. Defaulting to   0.200000E+00 A.
  Handling of forces: Unphysical translation and rotation will be removed from forces.
  No accuracy limit for integral partition fn. given. Defaulting to 0.1000E-14.
  No threshold value for u(r) in integrations given. Defaulting to 0.1000E-05.
  No accuracy for occupation numbers given. Defaulting to 0.1000E-07.
  No threshold value for occupation numbers given. Defaulting to 0.0000E+00.
  No accuracy for fermi level given. Defaulting to 0.1000E-19.
  Maximum # of iterations to find E_F not set. Defaulting to  200.
  Preferred method for the eigenvalue solver ('KS_method') not specified in 'control.in'.
  Defaulting to serial version, 'lapack_fast', since more k-points than CPUs available.
  Will not use alltoall communication since running on < 1024 CPUs.
  Threshold for basis singularities not set.
  Default threshold for basis singularities: 0.1000E-04
  partition_type (choice of integration weights) for integrals was not specified.
  | Using a version of the partition function of Stratmann and coworkers ('stratmann_smoother').
  | At each grid point, the set of atoms used to build the partition table is smoothly restricted to
  | only those atoms whose free-atom density would be non-zero at that grid point.
  Partitioning for Hartree potential was not defined. Using partition_type for integrals.
  | Adjusted default value of keyword multip_moments_threshold to:       0.10000000E-11
  | This value may affect high angular momentum components of the Hartree potential in periodic systems.
  Angular momentum expansion for Kerker preconditioner not set explicitly.
  | Using default value of   0
  No explicit requirement for turning off preconditioner.
  | By default, it will be turned off when the charge convergence reaches
  | sc_accuracy_rho  =   0.100000E-03
  | sc_accuracy_eev  =   0.100000E-01
  | sc_accuracy_etot =   0.100000E-03
  No special mixing parameter while Kerker preconditioner is on.
  Using default: charge_mix_param =     0.2000.
  No q(lm)/r^(l+1) cutoff set for long-range Hartree potential.
  | Using default value of  0.100000E-09 .
  | Verify using the multipole_threshold keyword.
  Defaulting to new monopole extrapolation.
  Density update method: automatic selection selected.
  Using density matrix based charge density update.
  Using density matrix based charge density update.
  Using packed matrix style: index .
  Defaulting to use time-reversal symmetry for k-point grid.
------------------------------------------------------------


------------------------------------------------------------
          Reading geometry description geometry.in.
------------------------------------------------------------
  Found relaxation constraint for atom      5: All coordinates fixed.
  Found relaxation constraint for atom      6: All coordinates fixed.
  Found relaxation constraint for atom      7: All coordinates fixed.
  Found relaxation constraint for atom      8: All coordinates fixed.
  Found relaxation constraint for atom      9: All coordinates fixed.
  Found relaxation constraint for atom     10: All coordinates fixed.
  Found relaxation constraint for atom     11: All coordinates fixed.
  Found relaxation constraint for atom     12: All coordinates fixed.
  Found relaxation constraint for atom     13: All coordinates fixed.
  Found relaxation constraint for atom     14: All coordinates fixed.
  Found relaxation constraint for atom     15: All coordinates fixed.
  Found relaxation constraint for atom     16: All coordinates fixed.
  Found relaxation constraint for atom     17: All coordinates fixed.
  Found relaxation constraint for atom     18: All coordinates fixed.
  Found relaxation constraint for atom     19: All coordinates fixed.
  Found relaxation constraint for atom     20: All coordinates fixed.
 * Attention. You are trying to treat an element beyond Ne (Z=10) without
 * accounting for relativity. This will lead to slight deviations from the true
 * physics of the system. Check your results if in doubt.
  Input structure read successfully.
  The structure contains       40 atoms,  and a total of        456.000 electrons.

  Input geometry:
  | Unit cell:
  |         7.721606         0.000000         0.000000
  |         3.860803         6.687107         0.000000
  |         0.000000         0.000000        30.973579
  | Atomic structure:
  |       Atom                x [A]            y [A]            z [A]
  |    1: Species H          0.000000         2.229036         2.800000
  |    2: Species H          3.860803         2.229036         2.800000
  |    3: Species H          1.930402         5.572589         2.800000
  |    4: Species H          5.791205         5.572589         2.800000
  |    5: Species Si         0.000000         2.229036         4.364249
  |    6: Species Si         3.860803         2.229036         4.364249
  |    7: Species Si         1.930402         5.572589         4.364249
  |    8: Species Si         5.791205         5.572589         4.364249
  |    9: Species Si         0.000000         0.000000         5.152332
  |   10: Species Si         3.860803         0.000000         5.152332
  |   11: Species Si         1.930402         3.343553         5.152332
  |   12: Species Si         5.791205         3.343553         5.152332
  |   13: Species Si         0.000000         0.000000         7.516582
  |   14: Species Si         3.860803         0.000000         7.516582
  |   15: Species Si         1.930402         3.343553         7.516582
  |   16: Species Si         5.791205         3.343553         7.516582
  |   17: Species Si         1.930402         1.114518         8.304665
  |   18: Species Si         5.791205         1.114518         8.304665
  |   19: Species Si         3.860803         4.458071         8.304665
  |   20: Species Si         7.721606         4.458071         8.304665
  |   21: Species Si         1.930402         1.114518        10.668914
  |   22: Species Si         5.791205         1.114518        10.668914
  |   23: Species Si         3.860803         4.458071        10.668914
  |   24: Species Si         7.721606         4.458071        10.668914
  |   25: Species Si         0.000000         2.229036        11.456997
  |   26: Species Si         3.860803         2.229036        11.456997
  |   27: Species Si         1.930402         5.572589        11.456997
  |   28: Species Si         5.791205         5.572589        11.456997
  |   29: Species Si         0.000000         2.229036        13.821247
  |   30: Species Si         3.860803         2.229036        13.821247
  |   31: Species Si         1.930402         5.572589        13.821247
  |   32: Species Si         5.791205         5.572589        13.821247
  |   33: Species Si         0.000000         0.000000        14.609330
  |   34: Species Si         3.860803         0.000000        14.609330
  |   35: Species Si         1.930402         3.343553        14.609330
  |   36: Species Si         5.791205         3.343553        14.609330
  |   37: Species H          0.000000         0.000000        16.173579
  |   38: Species H          3.860803         0.000000        16.173579
  |   39: Species H          1.930402         3.343553        16.173579
  |   40: Species H          5.791205         3.343553        16.173579
  |
  | Closest distance between atoms is    1.564 AA.

  Quantities derived from the lattice vectors:
  | Reciprocal lattice vector 1:  0.813715 -0.469798  0.000000
  | Reciprocal lattice vector 2:  0.000000  0.939597  0.000000
  | Reciprocal lattice vector 3:  0.000000  0.000000  0.202856
  | Unit cell volume                               :   0.159933E+04  A^3

  Number of empty states per atom not set in control.in - providing a guess from actual geometry.
  | Total number of empty states used during s.c.f. cycle:      108
  If you use a very high smearing, use empty_states (per atom!) in control.in to increase this value.

  Structure-dependent array size parameters: 
  | Maximum number of distinct radial functions  :       12
  | Maximum number of basis functions            :      840
  | Number of Kohn-Sham states (occupied + empty):      336
------------------------------------------------------------

------------------------------------------------------------
          Preparing all fixed parts of the calculation.
------------------------------------------------------------
  Determining machine precision:
    2.225073858507201E-308
  Setting up grids for atomic and cluster calculations.

  Creating wave function, potential, and density for free atoms.

  Species: Si

  List of occupied orbitals and eigenvalues:
    n    l              occ      energy [Ha]    energy [eV]
    1    0           2.0000       -65.445149     -1780.8531
    2    0           2.0000        -5.090624      -138.5229
    3    0           2.0000        -0.387306       -10.5391
    2    1           6.0000        -3.501074       -95.2691
    3    1           2.0000        -0.141183        -3.8418


  Species: H

  List of occupied orbitals and eigenvalues:
    n    l              occ      energy [Ha]    energy [eV]
    1    0           1.0000        -0.238382        -6.4867

  Creating fixed part of basis set: Ionic, confined, hydrogenic.
 
  Si                   ion:

  List of free ionic orbitals and eigenvalues:
    n    l      energy [Ha]    energy [eV]
    1    0       -66.316121     -1804.5535
    2    0        -5.938141      -161.5850
    3    0        -1.071307       -29.1517
    2    1        -4.349847      -118.3654
    3    1        -0.776664       -21.1341


  List of ionic basis orbitals and eigenvalues:
    n    l      energy [Ha]    energy [eV]    outer radius [A]
    3    0        -1.071285       -29.1512       4.214062

 
  Si                   hydrogenic:
 
  List of hydrogenic basis orbitals: 
    n    l      effective z      eigenvalue [eV]  inner max. [A]     outer max. [A]     outer radius [A]   
    3    2         4.200000       -26.6624           1.139231           1.139231           4.534782
    2    1         1.400000        -6.4613           1.472672           1.472672           4.590560
    4    3         6.200000       -32.6778           1.368518           1.368518           4.534782
 
 
  H                    hydrogenic:
 
  List of hydrogenic basis orbitals: 
    n    l      effective z      eigenvalue [eV]  inner max. [A]     outer max. [A]     outer radius [A]   
    2    0         2.100000       -14.9965           0.193243           1.317208           5.373006
    2    1         3.500000       -41.6672           0.602369           0.602369           4.056063
 

  Adding cutoff potential to free-atom effective potential.
  Creating atomic-like basis functions for current effective potential.

  Species Si                  :

  List of atomic basis orbitals and eigenvalues:
    n    l      energy [Ha]    energy [eV]    outer radius [A]
    1    0       -65.445149     -1780.8531       0.789468
    2    0        -5.090624      -138.5229       2.815114
    3    0        -0.387306       -10.5391       4.534782
    2    1        -3.501074       -95.2691       3.259919
    3    1        -0.141183        -3.8418       4.590560


  Species H                   :

  List of atomic basis orbitals and eigenvalues:
    n    l      energy [Ha]    energy [eV]    outer radius [A]
    1    0        -0.238382        -6.4867       5.373006

  Assembling full basis from fixed parts.
  | Species Si :   atomic orbital   1 s accepted.
  | Species Si :   atomic orbital   2 s accepted.
  | Species Si :    ionic orbital   3 s accepted.
  | Species Si :   atomic orbital   3 s accepted.
  | Species Si :   atomic orbital   2 p accepted.
  | Species Si :   atomic orbital   3 p accepted.
  | Species Si :    hydro orbital   2 p accepted.
  | Species Si :    hydro orbital   3 d accepted.
  | Species Si :    hydro orbital   4 f accepted.
  | Species H :   atomic orbital   1 s accepted.
  | Species H :    hydro orbital   2 s accepted.
  | Species H :    hydro orbital   2 p accepted.
 
  Basis size parameters after reduction:
  | Total number of radial functions:       12
  | Total number of basis functions :      840
 
  Preparing densities etc. for the partition functions (integrals / Hartree potential).

  Preparations completed.
  max(cpu_time)          :      0.212 s.
  Wall clock time (cpu1) :      0.210 s.
------------------------------------------------------------

------------------------------------------------------------
          Begin self-consistency loop: Initialization.

          Date     :  20131111, Time     :  191749.114
------------------------------------------------------------

  Initializing index lists of integration centers etc. from given atomic structure:
  Mapping all atomic coordinates to central unit cell.

  Initializing the k-points
          Using symmetry for reducing the k-points
  | k-points reduced from:        9 to        5
  | Number of k-points                             :         5
  The eigenvectors in the calculations are COMPLEX.
  | K-points in task   0:         0
  | K-points in task   1:         1
  | K-points in task   2:         1
  | K-points in task   3:         1
  | K-points in task   4:         1
  | K-points in task   5:         1
  | K-points in task   6:         0
  | K-points in task   7:         0
  | Number of basis functions in the Hamiltonian integrals :      5742
  | Number of basis functions in a single unit cell        :       840
  | Number of centers in hartree potential         :      1094
  | Number of centers in hartree multipole         :       858
  | Number of centers in electron density summation:       724
  | Number of centers in basis integrals           :       745
  | Number of centers in integrals                 :       325
  | Consuming          4 KiB for k_phase.
  | Number of super-cells :                  56
  | Size of matrix packed + index :     1106253
  Initializing relaxation algorithms.
  Partitioning the integration grid into batches with parallel hashing+maxmin method.
  | Number of batches:     3126
  | Maximal batch size:     199
  | Minimal batch size:      53
  | Average batch size:      94.347
  | Standard deviation of batch sizes:      37.709

  Integration load balanced across     8 MPI tasks.
  Work distribution over tasks is as follows:
  Task     0 has      36829 integration points.
  Task     1 has      36837 integration points.
  Task     2 has      36925 integration points.
  Task     3 has      36904 integration points.
  Task     4 has      36810 integration points.
  Task     5 has      36806 integration points.
  Task     6 has      36896 integration points.
  Task     7 has      36921 integration points.
  Initializing partition tables, free-atom densities, potentials, etc.
  across the integration grid (initialize_grid_storage).
  | initialize_grid_storage: Actual outermost partition radius vs. multipole_radius_free
  | (-- VB: in principle, multipole_radius_free should be larger, hence this output)
  | Species        1: outer_partition_radius =              4.999999999999999 AA, multipole_radius_free =              5.000694715736543 AA.
  | Species        2: outer_partition_radius =              6.000000000000000 AA, multipole_radius_free =              6.071692442739658 AA.
  | Net number of integration points:   294928
  | of which are non-zero points    :   249840
  | Average free-atom electrostatic potential              :     -5.42001063 eV
  Obtaining max. number of non-zero basis functions in each batch (get_n_compute_maxes).
  | Maximal number of non-zero basis functions:      679 in task     0
  | Maximal number of non-zero basis functions:      674 in task     1
  | Maximal number of non-zero basis functions:      688 in task     2
  | Maximal number of non-zero basis functions:      670 in task     3
  | Maximal number of non-zero basis functions:      669 in task     4
  | Maximal number of non-zero basis functions:      680 in task     5
  | Maximal number of non-zero basis functions:      678 in task     6
  | Maximal number of non-zero basis functions:      700 in task     7
  Integrating Hamiltonian matrix: batch-based integration.
  Time summed over all CPUs for integration: real work       34.961 s, elapsed       35.665 s
  Integrating overlap matrix.
  Time summed over all CPUs for integration: real work       22.183 s, elapsed       23.237 s
  Decreasing sparse matrix size:
   Tolerance:  9.999999824516700E-014
   Hamiltonian matrix
  | Array has   956951 nonzero elements out of  1106253 elements
  | Sparsity factor is 0.135
   Overlap matrix
  | Array has   926208 nonzero elements out of  1106253 elements
  | Sparsity factor is 0.163
  New size of hamiltonian matrix:      961333

  Updating Kohn-Sham eigenvalues, eigenvectors, occupation numbers, and Fermi level.
  Solving generalized eigenproblem
  Transforming overlap matrix and checking for singularities.
  Overlap matrix is nonsingular at first k-point:
  | Lowest eigenvalue:  0.581534E-03
  Determining occupation numbers for Kohn-Sham eigenstates.
  | Chemical potential (Fermi level) in eV                 : -.58768103E+01
  | Error in electron count due to remaining E_F inaccuracy: -.78842959E-08
  | Maximum occupation number of highest empty state:  0.00E+00

  Writing Kohn-Sham eigenvalues.
  K-point:       1 at    0.000000    0.000000    0.000000 (in units of recip. lattice)

  State    Occupation    Eigenvalue [Ha]    Eigenvalue [eV]
      1       2.00000         -65.467182        -1781.45267
      2       2.00000         -65.467182        -1781.45267
      3       2.00000         -65.467182        -1781.45267
      4       2.00000         -65.467182        -1781.45267
      5       2.00000         -65.467182        -1781.45267
      6       2.00000         -65.467182        -1781.45267
      7       2.00000         -65.467182        -1781.45267
      8       2.00000         -65.467182        -1781.45267
      9       2.00000         -65.466050        -1781.42185
     10       2.00000         -65.466050        -1781.42185
     11       2.00000         -65.466050        -1781.42185
     12       2.00000         -65.466050        -1781.42185
     13       2.00000         -65.466050        -1781.42185
     14       2.00000         -65.466050        -1781.42185
     15       2.00000         -65.466050        -1781.42185
     16       2.00000         -65.466050        -1781.42185
     17       2.00000         -65.465991        -1781.42027
     18       2.00000         -65.465991        -1781.42027
     19       2.00000         -65.465991        -1781.42027
     20       2.00000         -65.465991        -1781.42027
     21       2.00000         -65.465991        -1781.42027
     22       2.00000         -65.465991        -1781.42027
     23       2.00000         -65.465991        -1781.42027
     24       2.00000         -65.465991        -1781.42027
     25       2.00000         -65.465991        -1781.42027
     26       2.00000         -65.465991        -1781.42027
     27       2.00000         -65.465991        -1781.42027
     28       2.00000         -65.465991        -1781.42027
     29       2.00000         -65.465991        -1781.42027
     30       2.00000         -65.465991        -1781.42027
     31       2.00000         -65.465991        -1781.42027
     32       2.00000         -65.465991        -1781.42027
     33       2.00000          -5.116985         -139.24025
     34       2.00000          -5.116985         -139.24025
     35       2.00000          -5.116978         -139.24006
     36       2.00000          -5.116978         -139.24006
     37       2.00000          -5.116978         -139.24006
     38       2.00000          -5.116978         -139.24006
     39       2.00000          -5.116978         -139.24006
     40       2.00000          -5.116978         -139.24006
     41       2.00000          -5.115778         -139.20739
     42       2.00000          -5.115752         -139.20669
     43       2.00000          -5.115732         -139.20615
     44       2.00000          -5.115732         -139.20615
     45       2.00000          -5.115732         -139.20615
     46       2.00000          -5.115729         -139.20607
     47       2.00000          -5.115729         -139.20607
     48       2.00000          -5.115729         -139.20607
     49       2.00000          -5.115702         -139.20535
     50       2.00000          -5.115695         -139.20514
     51       2.00000          -5.115695         -139.20514
     52       2.00000          -5.115695         -139.20514
     53       2.00000          -5.115692         -139.20507
     54       2.00000          -5.115657         -139.20412
     55       2.00000          -5.115657         -139.20412
     56       2.00000          -5.115657         -139.20412
     57       2.00000          -5.115620         -139.20310
     58       2.00000          -5.115620         -139.20310
     59       2.00000          -5.115620         -139.20310
     60       2.00000          -5.115592         -139.20235
     61       2.00000          -5.115592         -139.20235
     62       2.00000          -5.115592         -139.20235
     63       2.00000          -5.115559         -139.20144
     64       2.00000          -5.115527         -139.20056
     65       2.00000          -3.527694          -95.99343
     66       2.00000          -3.527694          -95.99343
     67       2.00000          -3.527694          -95.99343
     68       2.00000          -3.527694          -95.99343
     69       2.00000          -3.527694          -95.99343
     70       2.00000          -3.527694          -95.99343
     71       2.00000          -3.527675          -95.99293
     72       2.00000          -3.527675          -95.99293
     73       2.00000          -3.527152          -95.97869
     74       2.00000          -3.527152          -95.97869
     75       2.00000          -3.527152          -95.97868
     76       2.00000          -3.527152          -95.97868
     77       2.00000          -3.527152          -95.97868
     78       2.00000          -3.527152          -95.97868
     79       2.00000          -3.527129          -95.97806
     80       2.00000          -3.527129          -95.97806
     81       2.00000          -3.527129          -95.97806
     82       2.00000          -3.527129          -95.97806
     83       2.00000          -3.527092          -95.97705
     84       2.00000          -3.527092          -95.97705
     85       2.00000          -3.527092          -95.97705
     86       2.00000          -3.527092          -95.97705
     87       2.00000          -3.527092          -95.97705
     88       2.00000          -3.527092          -95.97705
     89       2.00000          -3.526301          -95.95555
     90       2.00000          -3.526301          -95.95555
     91       2.00000          -3.526301          -95.95554
     92       2.00000          -3.526297          -95.95543
     93       2.00000          -3.526297          -95.95543
     94       2.00000          -3.526297          -95.95543
     95       2.00000          -3.526276          -95.95485
     96       2.00000          -3.526276          -95.95485
     97       2.00000          -3.526276          -95.95485
     98       2.00000          -3.526272          -95.95474
     99       2.00000          -3.526272          -95.95474
    100       2.00000          -3.526272          -95.95473
    101       2.00000          -3.526255          -95.95428
    102       2.00000          -3.526255          -95.95427
    103       2.00000          -3.526249          -95.95411
    104       2.00000          -3.526249          -95.95411
    105       2.00000          -3.526249          -95.95411
    106       2.00000          -3.526234          -95.95370
    107       2.00000          -3.526233          -95.95369
    108       2.00000          -3.526233          -95.95368
    109       2.00000          -3.526224          -95.95343
    110       2.00000          -3.526182          -95.95230
    111       2.00000          -3.526096          -95.94994
    112       2.00000          -3.526096          -95.94994
    113       2.00000          -3.526096          -95.94994
    114       2.00000          -3.525991          -95.94709
    115       2.00000          -3.525991          -95.94708
    116       2.00000          -3.525991          -95.94708
    117       2.00000          -3.525958          -95.94620
    118       2.00000          -3.525958          -95.94620
    119       2.00000          -3.525958          -95.94619
    120       2.00000          -3.525955          -95.94612
    121       2.00000          -3.525955          -95.94612
    122       2.00000          -3.525955          -95.94612
    123       2.00000          -3.525904          -95.94473
    124       2.00000          -3.525904          -95.94473
    125       2.00000          -3.525904          -95.94473
    126       2.00000          -3.525904          -95.94472
    127       2.00000          -3.525881          -95.94411
    128       2.00000          -3.525881          -95.94411
    129       2.00000          -3.525881          -95.94411
    130       2.00000          -3.525881          -95.94411
    131       2.00000          -3.525881          -95.94411
    132       2.00000          -3.525881          -95.94411
    133       2.00000          -3.525876          -95.94397
    134       2.00000          -3.525876          -95.94397
    135       2.00000          -3.525876          -95.94397
    136       2.00000          -3.525770          -95.94109
    137       2.00000          -3.525770          -95.94109
    138       2.00000          -3.525770          -95.94109
    139       2.00000          -3.525707          -95.93936
    140       2.00000          -3.525693          -95.93898
    141       2.00000          -3.525652          -95.93787
    142       2.00000          -3.525626          -95.93716
    143       2.00000          -3.525626          -95.93716
    144       2.00000          -3.525626          -95.93716
    145       2.00000          -3.525623          -95.93709
    146       2.00000          -3.525623          -95.93708
    147       2.00000          -3.525602          -95.93651
    148       2.00000          -3.525602          -95.93651
    149       2.00000          -3.525601          -95.93649
    150       2.00000          -3.525601          -95.93649
    151       2.00000          -3.525601          -95.93649
    152       2.00000          -3.525581          -95.93593
    153       2.00000          -3.525581          -95.93593
    154       2.00000          -3.525581          -95.93593
    155       2.00000          -3.525560          -95.93536
    156       2.00000          -3.525559          -95.93535
    157       2.00000          -3.525559          -95.93535
    158       2.00000          -3.525557          -95.93529
    159       2.00000          -3.525557          -95.93529
    160       2.00000          -3.525557          -95.93529
    161       2.00000          -0.651094          -17.71716
    162       2.00000          -0.636808          -17.32842
    163       2.00000          -0.614538          -16.72244
    164       2.00000          -0.588425          -16.01186
    165       2.00000          -0.570782          -15.53177
    166       2.00000          -0.570769          -15.53143
    167       2.00000          -0.570769          -15.53143
    168       2.00000          -0.562825          -15.31524
    169       2.00000          -0.562814          -15.31496
    170       2.00000          -0.562814          -15.31496
    171       2.00000          -0.549286          -14.94682
    172       2.00000          -0.549276          -14.94656
    173       2.00000          -0.549276          -14.94656
    174       2.00000          -0.529702          -14.41392
    175       2.00000          -0.529693          -14.41367
    176       2.00000          -0.529693          -14.41367
    177       2.00000          -0.504146          -13.71851
    178       2.00000          -0.504145          -13.71849
    179       2.00000          -0.504145          -13.71849
    180       2.00000          -0.476630          -12.96975
    181       2.00000          -0.476628          -12.96972
    182       2.00000          -0.476628          -12.96972
    183       2.00000          -0.471479          -12.82960
    184       2.00000          -0.466952          -12.70641
    185       2.00000          -0.466952          -12.70641
    186       2.00000          -0.466950          -12.70634
    187       2.00000          -0.460709          -12.53652
    188       2.00000          -0.460709          -12.53652
    189       2.00000          -0.460706          -12.53644
    190       2.00000          -0.445819          -12.13134
    191       2.00000          -0.393780          -10.71531
    192       2.00000          -0.381181          -10.37246
    193       2.00000          -0.381181          -10.37246
    194       2.00000          -0.381179          -10.37242
    195       2.00000          -0.378392          -10.29658
    196       2.00000          -0.378392          -10.29658
    197       2.00000          -0.378390          -10.29653
    198       2.00000          -0.336327           -9.15192
    199       2.00000          -0.336326           -9.15190
    200       2.00000          -0.336326           -9.15190
    201       2.00000          -0.331094           -9.00954
    202       2.00000          -0.331094           -9.00952
    203       2.00000          -0.331094           -9.00952
    204       2.00000          -0.329870           -8.97623
    205       2.00000          -0.320585           -8.72356
    206       2.00000          -0.320585           -8.72356
    207       2.00000          -0.320569           -8.72313
    208       2.00000          -0.307966           -8.38019
    209       2.00000          -0.307966           -8.38019
    210       2.00000          -0.307960           -8.38003
    211       2.00000          -0.290538           -7.90593
    212       2.00000          -0.290538           -7.90593
    213       2.00000          -0.290536           -7.90589
    214       2.00000          -0.290385           -7.90178
    215       2.00000          -0.290378           -7.90158
    216       2.00000          -0.290378           -7.90158
    217       2.00000          -0.274303           -7.46417
    218       2.00000          -0.274288           -7.46375
    219       2.00000          -0.274288           -7.46375
    220       2.00000          -0.264451           -7.19609
    221       2.00000          -0.264428           -7.19546
    222       2.00000          -0.263796           -7.17826
    223       2.00000          -0.255157           -6.94318
    224       2.00000          -0.255134           -6.94254
    225       2.00000          -0.242118           -6.58835
    226       2.00000          -0.242094           -6.58773
    227       2.00000          -0.230301           -6.26680
    228       2.00000          -0.230283           -6.26631
    229       0.00000          -0.181909           -4.95000
    230       0.00000          -0.181884           -4.94931
    231       0.00000          -0.181884           -4.94931
    232       0.00000          -0.168669           -4.58972
    233       0.00000          -0.168669           -4.58972
    234       0.00000          -0.168668           -4.58968
    235       0.00000          -0.164923           -4.48777
    236       0.00000          -0.164908           -4.48739
    237       0.00000          -0.164908           -4.48739
    238       0.00000          -0.161514           -4.39503
    239       0.00000          -0.153085           -4.16566
    240       0.00000          -0.151103           -4.11173
    241       0.00000          -0.151103           -4.11173
    242       0.00000          -0.151080           -4.11110
    243       0.00000          -0.146503           -3.98656
    244       0.00000          -0.146495           -3.98633
    245       0.00000          -0.146495           -3.98633
    246       0.00000          -0.139790           -3.80388
    247       0.00000          -0.128316           -3.49166
    248       0.00000          -0.114803           -3.12395
    249       0.00000          -0.114793           -3.12368
    250       0.00000          -0.112798           -3.06938
    251       0.00000          -0.112798           -3.06938
    252       0.00000          -0.112787           -3.06908
    253       0.00000          -0.097469           -2.65226
    254       0.00000          -0.097370           -2.64957
    255       0.00000          -0.097370           -2.64957
    256       0.00000          -0.097361           -2.64932
    257       0.00000          -0.097323           -2.64829
    258       0.00000          -0.095847           -2.60813
    259       0.00000          -0.090157           -2.45328
    260       0.00000          -0.089888           -2.44596
    261       0.00000          -0.088238           -2.40109
    262       0.00000          -0.088113           -2.39766
    263       0.00000          -0.075992           -2.06786
    264       0.00000          -0.075850           -2.06397
    265       0.00000          -0.075850           -2.06397
    266       0.00000          -0.072175           -1.96399
    267       0.00000          -0.072130           -1.96276
    268       0.00000          -0.072130           -1.96276
    269       0.00000          -0.050657           -1.37844
    270       0.00000          -0.036318           -0.98827
    271       0.00000          -0.036316           -0.98821
    272       0.00000          -0.036316           -0.98821
    273       0.00000          -0.032162           -0.87518
    274       0.00000          -0.032050           -0.87212
    275       0.00000          -0.032050           -0.87212
    276       0.00000          -0.006472           -0.17612
    277       0.00000          -0.006414           -0.17453
    278       0.00000          -0.006414           -0.17453
    279       0.00000           0.008763            0.23844
    280       0.00000           0.029645            0.80669
    281       0.00000           0.029707            0.80837
    282       0.00000           0.029707            0.80837
    283       0.00000           0.051685            1.40641
    284       0.00000           0.051747            1.40810
    285       0.00000           0.051747            1.40810
    286       0.00000           0.057220            1.55704
    287       0.00000           0.061972            1.68635
    288       0.00000           0.062003            1.68719
    289       0.00000           0.063347            1.72376
    290       0.00000           0.063356            1.72400
    291       0.00000           0.067577            1.83885
    292       0.00000           0.067616            1.83993
    293       0.00000           0.067616            1.83993
    294       0.00000           0.086895            2.36454
    295       0.00000           0.086922            2.36528
    296       0.00000           0.093229            2.53690
    297       0.00000           0.099951            2.71981
    298       0.00000           0.099976            2.72048
    299       0.00000           0.099976            2.72048
    300       0.00000           0.110080            2.99544
    301       0.00000           0.117746            3.20403
    302       0.00000           0.125563            3.41673
    303       0.00000           0.125563            3.41673
    304       0.00000           0.125573            3.41700
    305       0.00000           0.125858            3.42478
    306       0.00000           0.125930            3.42674
    307       0.00000           0.125930            3.42674
    308       0.00000           0.132191            3.59711
    309       0.00000           0.134851            3.66949
    310       0.00000           0.134942            3.67195
    311       0.00000           0.145421            3.95711
    312       0.00000           0.152506            4.14990
    313       0.00000           0.152546            4.15098
    314       0.00000           0.152546            4.15098
    315       0.00000           0.164046            4.46392
    316       0.00000           0.164046            4.46392
    317       0.00000           0.164052            4.46408
    318       0.00000           0.168031            4.57237
    319       0.00000           0.169228            4.60492
    320       0.00000           0.169228            4.60492
    321       0.00000           0.169246            4.60543
    322       0.00000           0.171805            4.67505
    323       0.00000           0.171805            4.67505
    324       0.00000           0.171810            4.67518
    325       0.00000           0.172685            4.69901
    326       0.00000           0.172685            4.69901
    327       0.00000           0.172711            4.69970
    328       0.00000           0.177974            4.84291
    329       0.00000           0.177974            4.84291
    330       0.00000           0.178018            4.84413
    331       0.00000           0.180946            4.92378
    332       0.00000           0.180946            4.92378
    333       0.00000           0.181059            4.92686
    334       0.00000           0.187251            5.09536
    335       0.00000           0.187324            5.09734
    336       0.00000           0.204679            5.56959

  Highest occupied state (VBM) at     -6.26631278 eV (relative to internal zero)
  | Occupation number:      1.99999996
  | K-point:       1 at    0.000000    0.000000    0.000000 (in units of recip. lattice)

  Lowest unoccupied state (CBM) at    -4.94999777 eV (relative to internal zero)
  | Occupation number:      0.00000000
  | K-point:       1 at    0.000000    0.000000    0.000000 (in units of recip. lattice)

  Overall HOMO-LUMO gap:      1.31631501 eV between HOMO at k-point 1 and LUMO at k-point 1
  | This appears to be a direct band gap.
  The gap value is above 0.2 eV. Unless you are using a very sparse k-point grid,
  this system is most likely an insulator or a semiconductor.
  Calculating total energy contributions from superposition of free atom densities.

  Total energy components:
  | Sum of eigenvalues            :       -5249.92948374 Ha     -142857.84978004 eV
  | XC energy correction          :        -667.57766618 Ha      -18165.71255797 eV
  | XC potential correction       :         862.18559213 Ha       23461.26365780 eV
  | Free-atom electrostatic energy:       -4210.29539305 Ha     -114567.96679882 eV
  | Hartree energy correction     :           0.00000000 Ha           0.00000000 eV
  | Entropy correction            :           0.00000000 Ha           0.00000000 eV
  | ---------------------------
  | Total energy                  :       -9265.61695084 Ha     -252130.26547903 eV
  | Total energy, T -> 0          :       -9265.61695084 Ha     -252130.26547903 eV  <-- only rely on this value for actual (periodic) metals
  | Electronic free energy        :       -9265.61695084 Ha     -252130.26547904 eV

  Derived energy quantities:
  | Kinetic energy                :        9251.70167843 Ha      251751.61165099 eV
  | Electrostatic energy          :      -17849.74096309 Ha     -485716.16457205 eV
  | Energy correction for multipole
  | error in Hartree potential    :           0.00000000 Ha           0.00000000 eV
  | Sum of eigenvalues per atom                           :       -3571.44624450 eV
  | Total energy (T->0) per atom                          :       -6303.25663698 eV  <-- only rely on this value for actual (periodic) metals
  | Electronic free energy per atom                       :       -6303.25663698 eV
  Initialize hartree_potential_storage
  Max. number of atoms included in rho_multipole:           40

  End scf initialization - timings             :  max(cpu_time)    wall_clock(cpu1)
  | Time for scf. initialization               :       18.373 s          18.435 s
  | Boundary condition initialization          :        1.292 s           1.295 s
  | Relaxation initialization                  :        0.016 s           0.015 s
  | Integration                                :        7.440 s           7.465 s
  | Solution of K.-S. eqns.                    :        6.860 s           6.884 s
  | Grid partitioning                          :        0.916 s           0.919 s
  | Preloading free-atom quantities on grid    :        0.012 s           0.012 s
  | Free-atom superposition energy             :        0.332 s           0.331 s
  | Total energy evaluation                    :        0.000 s           0.000 s
------------------------------------------------------------

------------------------------------------------------------
          Begin self-consistency iteration #    1

  Date     :  20131111, Time     :  191807.549
------------------------------------------------------------
  Evaluating new KS density using the density matrix
  Evaluating density matrix
  Time summed over all CPUs for getting density from density matrix: real work       85.713 s, elapsed       86.699 s
  Integration grid: deviation in total charge (<rho> - N_e) =  -7.892936E-09
  Pulay mixing of updated and previous charge densities.

  Evaluating partitioned Hartree potential by multipole expansion.
  | Analytical far-field extrapolation by fixed multipoles:
  | Hartree multipole sum: apparent total charge =   0.586676E-02
  Summing up the Hartree potential.
  | Estimated reciprocal-space cutoff momentum G_max:         3.32253784 bohr^-1 .
  | Reciprocal lattice points for long-range Hartree potential:    6714
  Time summed over all CPUs for potential: real work       26.610 s, elapsed       27.012 s
  | RMS charge density error from multipole expansion :   0.904207E-02
  | Average real-space part of the electrostatic potential :      0.03790616 eV

  Integrating Hamiltonian matrix: batch-based integration.
  Time summed over all CPUs for integration: real work       34.466 s, elapsed       36.005 s

  Updating Kohn-Sham eigenvalues, eigenvectors, occupation numbers, and Fermi level.
  Solving generalized eigenproblem
  Determining occupation numbers for Kohn-Sham eigenstates.
  | Chemical potential (Fermi level) in eV                 : -.56914713E+01
  | Error in electron count due to remaining E_F inaccuracy: -.71281647E-10
  | Maximum occupation number of highest empty state:  0.00E+00

  Writing Kohn-Sham eigenvalues.
  K-point:       1 at    0.000000    0.000000    0.000000 (in units of recip. lattice)

  State    Occupation    Eigenvalue [Ha]    Eigenvalue [eV]
      1       2.00000         -65.460069        -1781.25911
      2       2.00000         -65.460069        -1781.25911
      3       2.00000         -65.460069        -1781.25911
      4       2.00000         -65.460069        -1781.25911
      5       2.00000         -65.460069        -1781.25911
      6       2.00000         -65.460069        -1781.25911
      7       2.00000         -65.460069        -1781.25911
      8       2.00000         -65.460069        -1781.25911
      9       2.00000         -65.459921        -1781.25508
     10       2.00000         -65.459921        -1781.25508
     11       2.00000         -65.459921        -1781.25508
     12       2.00000         -65.459921        -1781.25508
     13       2.00000         -65.459921        -1781.25508
     14       2.00000         -65.459921        -1781.25508
     15       2.00000         -65.459921        -1781.25508
     16       2.00000         -65.459921        -1781.25508
     17       2.00000         -65.455353        -1781.13079
     18       2.00000         -65.455353        -1781.13079
     19       2.00000         -65.455353        -1781.13079
     20       2.00000         -65.455353        -1781.13079
     21       2.00000         -65.455353        -1781.13079
     22       2.00000         -65.455353        -1781.13079
     23       2.00000         -65.455353        -1781.13079
     24       2.00000         -65.455353        -1781.13079
     25       2.00000         -65.455332        -1781.13022
     26       2.00000         -65.455332        -1781.13022
     27       2.00000         -65.455332        -1781.13022
     28       2.00000         -65.455332        -1781.13022
     29       2.00000         -65.455332        -1781.13022
     30       2.00000         -65.455332        -1781.13022
     31       2.00000         -65.455332        -1781.13022
     32       2.00000         -65.455332        -1781.13022
     33       2.00000          -5.111242         -139.08398
     34       2.00000          -5.111210         -139.08311
     35       2.00000          -5.111210         -139.08311
     36       2.00000          -5.111210         -139.08311
     37       2.00000          -5.111184         -139.08238
     38       2.00000          -5.111144         -139.08130
     39       2.00000          -5.111144         -139.08130
     40       2.00000          -5.111144         -139.08130
     41       2.00000          -5.110951         -139.07606
     42       2.00000          -5.110951         -139.07606
     43       2.00000          -5.110951         -139.07606
     44       2.00000          -5.110950         -139.07602
     45       2.00000          -5.110950         -139.07602
     46       2.00000          -5.110950         -139.07602
     47       2.00000          -5.110919         -139.07519
     48       2.00000          -5.110910         -139.07493
     49       2.00000          -5.106661         -138.95931
     50       2.00000          -5.106661         -138.95931
     51       2.00000          -5.106632         -138.95851
     52       2.00000          -5.106632         -138.95851
     53       2.00000          -5.106632         -138.95851
     54       2.00000          -5.106632         -138.95851
     55       2.00000          -5.106632         -138.95851
     56       2.00000          -5.106632         -138.95851
     57       2.00000          -5.106346         -138.95074
     58       2.00000          -5.106346         -138.95074
     59       2.00000          -5.106346         -138.95074
     60       2.00000          -5.106346         -138.95074
     61       2.00000          -5.106346         -138.95074
     62       2.00000          -5.106346         -138.95074
     63       2.00000          -5.106316         -138.94993
     64       2.00000          -5.106316         -138.94993
     65       2.00000          -3.521617          -95.82808
     66       2.00000          -3.521617          -95.82808
     67       2.00000          -3.521617          -95.82808
     68       2.00000          -3.521565          -95.82666
     69       2.00000          -3.521565          -95.82666
     70       2.00000          -3.521565          -95.82665
     71       2.00000          -3.521553          -95.82634
     72       2.00000          -3.521537          -95.82591
     73       2.00000          -3.521537          -95.82591
     74       2.00000          -3.521537          -95.82590
     75       2.00000          -3.521525          -95.82557
     76       2.00000          -3.521525          -95.82556
     77       2.00000          -3.521496          -95.82479
     78       2.00000          -3.521496          -95.82479
     79       2.00000          -3.521463          -95.82388
     80       2.00000          -3.521463          -95.82388
     81       2.00000          -3.521463          -95.82388
     82       2.00000          -3.521411          -95.82247
     83       2.00000          -3.521411          -95.82247
     84       2.00000          -3.521411          -95.82247
     85       2.00000          -3.521206          -95.81689
     86       2.00000          -3.521206          -95.81689
     87       2.00000          -3.521206          -95.81689
     88       2.00000          -3.521115          -95.81442
     89       2.00000          -3.521103          -95.81408
     90       2.00000          -3.521052          -95.81270
     91       2.00000          -3.521052          -95.81269
     92       2.00000          -3.521052          -95.81269
     93       2.00000          -3.521015          -95.81168
     94       2.00000          -3.520998          -95.81124
     95       2.00000          -3.520998          -95.81124
     96       2.00000          -3.520998          -95.81124
     97       2.00000          -3.520910          -95.80882
     98       2.00000          -3.520909          -95.80882
     99       2.00000          -3.520909          -95.80882
    100       2.00000          -3.520851          -95.80723
    101       2.00000          -3.520851          -95.80722
    102       2.00000          -3.520839          -95.80691
    103       2.00000          -3.520839          -95.80690
    104       2.00000          -3.520839          -95.80690
    105       2.00000          -3.520836          -95.80683
    106       2.00000          -3.520836          -95.80683
    107       2.00000          -3.520811          -95.80613
    108       2.00000          -3.520811          -95.80613
    109       2.00000          -3.520810          -95.80612
    110       2.00000          -3.520795          -95.80572
    111       2.00000          -3.520795          -95.80572
    112       2.00000          -3.520795          -95.80571
    113       2.00000          -3.516971          -95.70165
    114       2.00000          -3.516971          -95.70165
    115       2.00000          -3.516971          -95.70165
    116       2.00000          -3.516971          -95.70165
    117       2.00000          -3.516971          -95.70165
    118       2.00000          -3.516971          -95.70165
    119       2.00000          -3.516934          -95.70064
    120       2.00000          -3.516934          -95.70064
    121       2.00000          -3.516934          -95.70064
    122       2.00000          -3.516934          -95.70064
    123       2.00000          -3.516934          -95.70063
    124       2.00000          -3.516934          -95.70063
    125       2.00000          -3.516898          -95.69965
    126       2.00000          -3.516898          -95.69965
    127       2.00000          -3.516897          -95.69965
    128       2.00000          -3.516897          -95.69965
    129       2.00000          -3.516823          -95.69761
    130       2.00000          -3.516823          -95.69761
    131       2.00000          -3.516784          -95.69657
    132       2.00000          -3.516784          -95.69657
    133       2.00000          -3.516784          -95.69657
    134       2.00000          -3.516784          -95.69657
    135       2.00000          -3.516784          -95.69657
    136       2.00000          -3.516784          -95.69657
    137       2.00000          -3.516701          -95.69430
    138       2.00000          -3.516701          -95.69430
    139       2.00000          -3.516606          -95.69171
    140       2.00000          -3.516606          -95.69171
    141       2.00000          -3.516606          -95.69171
    142       2.00000          -3.516606          -95.69171
    143       2.00000          -3.516606          -95.69171
    144       2.00000          -3.516606          -95.69171
    145       2.00000          -3.516199          -95.68065
    146       2.00000          -3.516199          -95.68065
    147       2.00000          -3.516199          -95.68065
    148       2.00000          -3.516199          -95.68065
    149       2.00000          -3.516199          -95.68065
    150       2.00000          -3.516199          -95.68065
    151       2.00000          -3.516139          -95.67900
    152       2.00000          -3.516139          -95.67900
    153       2.00000          -3.516139          -95.67900
    154       2.00000          -3.516139          -95.67900
    155       2.00000          -3.516103          -95.67802
    156       2.00000          -3.516103          -95.67802
    157       2.00000          -3.516103          -95.67802
    158       2.00000          -3.516103          -95.67802
    159       2.00000          -3.516102          -95.67802
    160       2.00000          -3.516102          -95.67802
    161       2.00000          -0.648190          -17.63815
    162       2.00000          -0.631552          -17.18541
    163       2.00000          -0.608503          -16.55822
    164       2.00000          -0.584029          -15.89222
    165       2.00000          -0.567622          -15.44577
    166       2.00000          -0.567609          -15.44543
    167       2.00000          -0.567609          -15.44543
    168       2.00000          -0.557614          -15.17346
    169       2.00000          -0.557604          -15.17318
    170       2.00000          -0.557604          -15.17318
    171       2.00000          -0.543129          -14.77929
    172       2.00000          -0.543119          -14.77903
    173       2.00000          -0.543119          -14.77903
    174       2.00000          -0.523547          -14.24643
    175       2.00000          -0.523537          -14.24618
    176       2.00000          -0.523537          -14.24618
    177       2.00000          -0.498016          -13.55170
    178       2.00000          -0.498015          -13.55167
    179       2.00000          -0.498015          -13.55167
    180       2.00000          -0.470257          -12.79633
    181       2.00000          -0.470255          -12.79630
    182       2.00000          -0.470255          -12.79630
    183       2.00000          -0.465882          -12.67730
    184       2.00000          -0.464812          -12.64819
    185       2.00000          -0.464812          -12.64819
    186       2.00000          -0.464811          -12.64816
    187       2.00000          -0.456037          -12.40939
    188       2.00000          -0.456037          -12.40939
    189       2.00000          -0.456034          -12.40932
    190       2.00000          -0.437559          -11.90660
    191       2.00000          -0.386887          -10.52774
    192       2.00000          -0.372645          -10.14018
    193       2.00000          -0.372645          -10.14018
    194       2.00000          -0.372645          -10.14018
    195       2.00000          -0.369854          -10.06423
    196       2.00000          -0.369854          -10.06423
    197       2.00000          -0.369853          -10.06421
    198       2.00000          -0.333450           -9.07363
    199       2.00000          -0.333448           -9.07359
    200       2.00000          -0.333448           -9.07359
    201       2.00000          -0.326603           -8.88732
    202       2.00000          -0.326601           -8.88727
    203       2.00000          -0.326601           -8.88727
    204       2.00000          -0.323576           -8.80496
    205       2.00000          -0.317860           -8.64942
    206       2.00000          -0.317860           -8.64942
    207       2.00000          -0.317844           -8.64897
    208       2.00000          -0.303003           -8.24513
    209       2.00000          -0.303003           -8.24513
    210       2.00000          -0.302997           -8.24496
    211       2.00000          -0.286284           -7.79017
    212       2.00000          -0.286284           -7.79017
    213       2.00000          -0.286282           -7.79014
    214       2.00000          -0.284364           -7.73793
    215       2.00000          -0.284356           -7.73772
    216       2.00000          -0.284356           -7.73772
    217       2.00000          -0.270070           -7.34899
    218       2.00000          -0.270054           -7.34854
    219       2.00000          -0.270054           -7.34854
    220       2.00000          -0.261278           -7.10975
    221       2.00000          -0.261251           -7.10901
    222       2.00000          -0.258861           -7.04397
    223       2.00000          -0.249881           -6.79960
    224       2.00000          -0.249853           -6.79884
    225       2.00000          -0.235547           -6.40955
    226       2.00000          -0.235521           -6.40884
    227       2.00000          -0.225461           -6.13512
    228       2.00000          -0.225441           -6.13456
    229       0.00000          -0.180574           -4.91368
    230       0.00000          -0.180549           -4.91298
    231       0.00000          -0.180549           -4.91298
    232       0.00000          -0.165784           -4.51122
    233       0.00000          -0.165784           -4.51122
    234       0.00000          -0.165777           -4.51102
    235       0.00000          -0.161663           -4.39907
    236       0.00000          -0.161642           -4.39850
    237       0.00000          -0.161642           -4.39850
    238       0.00000          -0.158703           -4.31852
    239       0.00000          -0.147991           -4.02703
    240       0.00000          -0.147532           -4.01456
    241       0.00000          -0.147532           -4.01456
    242       0.00000          -0.147509           -4.01392
    243       0.00000          -0.141851           -3.85996
    244       0.00000          -0.141843           -3.85974
    245       0.00000          -0.141843           -3.85974
    246       0.00000          -0.134508           -3.66015
    247       0.00000          -0.125241           -3.40799
    248       0.00000          -0.112095           -3.05027
    249       0.00000          -0.112086           -3.05002
    250       0.00000          -0.108413           -2.95006
    251       0.00000          -0.108413           -2.95006
    252       0.00000          -0.108401           -2.94974
    253       0.00000          -0.094501           -2.57150
    254       0.00000          -0.094402           -2.56880
    255       0.00000          -0.094402           -2.56880
    256       0.00000          -0.092816           -2.52564
    257       0.00000          -0.092764           -2.52424
    258       0.00000          -0.090260           -2.45609
    259       0.00000          -0.087853           -2.39059
    260       0.00000          -0.087587           -2.38336
    261       0.00000          -0.083735           -2.27854
    262       0.00000          -0.083603           -2.27496
    263       0.00000          -0.073718           -2.00597
    264       0.00000          -0.073571           -2.00198
    265       0.00000          -0.073571           -2.00198
    266       0.00000          -0.066901           -1.82046
    267       0.00000          -0.066855           -1.81921
    268       0.00000          -0.066855           -1.81921
    269       0.00000          -0.044259           -1.20435
    270       0.00000          -0.031957           -0.86958
    271       0.00000          -0.031952           -0.86945
    272       0.00000          -0.031952           -0.86945
    273       0.00000          -0.027644           -0.75224
    274       0.00000          -0.027529           -0.74912
[...]
    287       0.00000           0.094177            2.56269
    288       0.00000           0.094207            2.56349
    289       0.00000           0.094412            2.56908
    290       0.00000           0.094413            2.56912
    291       0.00000           0.108771            2.95981
    292       0.00000           0.108813            2.96095
    293       0.00000           0.108813            2.96096
    294       0.00000           0.121352            3.30216
    295       0.00000           0.121379            3.30290
    296       0.00000           0.125639            3.41881
    297       0.00000           0.136403            3.71171
    298       0.00000           0.136415            3.71205
    299       0.00000           0.136415            3.71205
    300       0.00000           0.145453            3.95797
    301       0.00000           0.151572            4.12449
    302       0.00000           0.157402            4.28313
    303       0.00000           0.157474            4.28508
    304       0.00000           0.157474            4.28508
    305       0.00000           0.162746            4.42853
    306       0.00000           0.162984            4.43503
    307       0.00000           0.162985            4.43503
    308       0.00000           0.162997            4.43537
    309       0.00000           0.171038            4.65419
    310       0.00000           0.171128            4.65662
    311       0.00000           0.177771            4.83739
    312       0.00000           0.187400            5.09942
    313       0.00000           0.187459            5.10101
    314       0.00000           0.187459            5.10101
    315       0.00000           0.202064            5.49845
    316       0.00000           0.202065            5.49846
    317       0.00000           0.202076            5.49877
    318       0.00000           0.205505            5.59208
    319       0.00000           0.206172            5.61023
    320       0.00000           0.206172            5.61023
    321       0.00000           0.206174            5.61028
    322       0.00000           0.206338            5.61474
    323       0.00000           0.206338            5.61474
    324       0.00000           0.206354            5.61519
    325       0.00000           0.207420            5.64419
    326       0.00000           0.207420            5.64419
    327       0.00000           0.207441            5.64476
    328       0.00000           0.213620            5.81289
    329       0.00000           0.213620            5.81290
    330       0.00000           0.213664            5.81409
    331       0.00000           0.218059            5.93369
    332       0.00000           0.218059            5.93370
    333       0.00000           0.218178            5.93694
    334       0.00000           0.224145            6.09930
    335       0.00000           0.224221            6.10136
    336       0.00000           0.239790            6.52503

  Highest occupied state (VBM) at     -5.18250951 eV (relative to internal zero)
  | Occupation number:      1.99999996
  | K-point:       1 at    0.000000    0.000000    0.000000 (in units of recip. lattice)

  Lowest unoccupied state (CBM) at    -4.12467581 eV (relative to internal zero)
  | Occupation number:      0.00000000
  | K-point:       1 at    0.000000    0.000000    0.000000 (in units of recip. lattice)

  Overall HOMO-LUMO gap:      1.05783371 eV between HOMO at k-point 1 and LUMO at k-point 1
  | This appears to be a direct band gap.
  The gap value is above 0.2 eV. Unless you are using a very sparse k-point grid,
  this system is most likely an insulator or a semiconductor.

  Self-consistency cycle converged.

  End self-consistency iteration #    11       :  max(cpu_time)    wall_clock(cpu1)
  | Time for this iteration                    :       95.090 s          95.418 s
  | Charge density & force component update    :       79.337 s          79.612 s
  | Density mixing                             :        0.040 s           0.039 s
  | Hartree multipole update                   :        0.012 s           0.011 s
  | Hartree multipole summation                :        9.429 s           9.459 s
  | Integration                                :        4.468 s           4.484 s
  | Solution of K.-S. eqns.                    :        1.804 s           1.808 s
  | Total energy evaluation                    :        0.004 s           0.002 s
------------------------------------------------------------
  Writing periodic restart information to file restart.dat000
 
  Energy and forces in a compact form:
  | Total energy uncorrected      :         -0.252126525200738E+06 eV
  | Total energy corrected        :         -0.252126525200739E+06 eV  <-- only rely on this value for actual (periodic) metals
  | Electronic free energy        :         -0.252126525200741E+06 eV
  Total atomic forces (unitary forces were cleaned, then relaxation constraints were applied) [eV/Ang]:
  |   1          0.113035281167938E-05          0.707941209991630E-05          0.162788403017959E-03
  |   2         -0.111201838938097E-05         -0.828802668168202E-05          0.170819733061211E-03
  |   3         -0.124839253925558E-04         -0.135294810053739E-04          0.164925146363127E-03
  |   4          0.119825645740225E-04         -0.135053359962114E-04          0.163858665141991E-03
  |   5          0.000000000000000E+00          0.000000000000000E+00          0.000000000000000E+00
  |   6          0.000000000000000E+00          0.000000000000000E+00          0.000000000000000E+00
  |   7          0.000000000000000E+00          0.000000000000000E+00          0.000000000000000E+00
  |   8          0.000000000000000E+00          0.000000000000000E+00          0.000000000000000E+00
  |   9          0.000000000000000E+00          0.000000000000000E+00          0.000000000000000E+00
  |  10          0.000000000000000E+00          0.000000000000000E+00          0.000000000000000E+00
  |  11          0.000000000000000E+00          0.000000000000000E+00          0.000000000000000E+00
  |  12          0.000000000000000E+00          0.000000000000000E+00          0.000000000000000E+00
  |  13          0.000000000000000E+00          0.000000000000000E+00          0.000000000000000E+00
  |  14          0.000000000000000E+00          0.000000000000000E+00          0.000000000000000E+00
  |  15          0.000000000000000E+00          0.000000000000000E+00          0.000000000000000E+00
  |  16          0.000000000000000E+00          0.000000000000000E+00          0.000000000000000E+00
  |  17          0.000000000000000E+00          0.000000000000000E+00          0.000000000000000E+00
  |  18          0.000000000000000E+00          0.000000000000000E+00          0.000000000000000E+00
  |  19          0.000000000000000E+00          0.000000000000000E+00          0.000000000000000E+00
  |  20          0.000000000000000E+00          0.000000000000000E+00          0.000000000000000E+00
  |  21          0.456055475592152E-05         -0.249556189312258E-04          0.825409752199853E-03
  |  22         -0.433980104355570E-05         -0.300650325794087E-04          0.832636857433457E-03
  |  23         -0.343967699157552E-05         -0.329442998351580E-04          0.827554247065742E-03
  |  24          0.271716348100420E-05         -0.296843989924711E-04          0.870881350528780E-03
  |  25          0.264853883440691E-05         -0.229334911369039E-04         -0.353491586583558E-02
  |  26         -0.114315249728127E-05         -0.308715033717116E-04         -0.352161113582921E-02
  |  27         -0.844981031580583E-05         -0.421015214116803E-04         -0.354256834587427E-02
  |  28          0.951236440133756E-05         -0.433786463910975E-04         -0.354576815498381E-02
  |  29         -0.864608850683887E-05         -0.332173702155726E-05         -0.260998076383312E-02
  |  30          0.861768064691480E-05         -0.159996728350440E-04         -0.259450634727860E-02
  |  31         -0.146721408780308E-04         -0.188141854572036E-04         -0.261083188564678E-02
  |  32          0.140942148351396E-04         -0.306235546356254E-04         -0.262072855452037E-02
  |  33          0.104349057119972E-04         -0.262624387143660E-04         -0.375820539986071E-02
  |  34         -0.102758698157066E-04         -0.287220853762104E-04         -0.375549950399104E-02
  |  35         -0.629156632285933E-05         -0.340564808759370E-04         -0.376276816337957E-02
  |  36          0.616124244633056E-05         -0.186308918640567E-04         -0.376202574220070E-02
  |  37         -0.476540093999505E-05         -0.215196754947037E-04         -0.361033553003854E-02
  |  38          0.464112145332469E-05         -0.167331051016596E-04         -0.361038951171292E-02
  |  39         -0.116560894340665E-05         -0.101023812400196E-04         -0.363538482535137E-02
  |  40          0.993131907822708E-06         -0.234085011883356E-04         -0.363570079718749E-02
 
  ------------------------------------ 
  Start decomposition of the XC Energy 
  ------------------------------------ 
  Hartree-Fock part   :          0.000000000 Ha              0.000000000 eV
  ------------------------------------ 
  X Energy            :       -651.199308610 Ha         -17720.034772723 eV
  C Energy GGA        :        -17.623731280 Ha           -479.566128188 eV
  Total XC Energy     :       -668.823039890 Ha         -18199.600900911 eV
  LDA X and C from self-consistent density 
  X Energy LDA        :       -602.256065452 Ha         -16388.221364463 eV
  C Energy LDA        :        -34.682570210 Ha           -943.760753445 eV
  ------------------------------------ 
  End decomposition of the XC Energy 
  ------------------------------------ 
  Relaxation / MD: End force evaluation.       :  max(cpu_time)    wall_clock(cpu1)
  | Time for this force evaluation             :      342.317 s         343.832 s

------------------------------------------------------------
  Geometry optimization: Attempting to predict improved coordinates.

  Net remaining forces (excluding translations, rotations) in present geometry:
  Maximum force component is  0.376277E-02 eV/A.
  Present geometry is converged.

------------------------------------------------------------
  Final atomic structure:
                         x [A]             y [A]             z [A]
  lattice_vector         7.72160605        0.00000000        0.00000000
  lattice_vector         3.86080303        6.68710700        0.00000000
  lattice_vector         0.00000000        0.00000000       30.97357923

            atom        -0.00000086        2.22892463        2.85533618  H
            atom         3.86080385        2.22893645        2.85533572  H
            atom         1.93041094        5.57249368        2.85533605  H
            atom         5.79119548        5.57249367        2.85533612  H
            atom         0.00000000        2.22903567        4.36424935  Si
            atom         3.86080303        2.22903567        4.36424935  Si
            atom         1.93040151        5.57258916        4.36424935  Si
            atom         5.79120454        5.57258916        4.36424935  Si
            atom         0.00000000        0.00000000        5.15233247  Si
            atom         3.86080303        0.00000000        5.15233247  Si
            atom         1.93040151        3.34355350        5.15233247  Si
            atom         5.79120454        3.34355350        5.15233247  Si
            atom         0.00000000        0.00000000        7.51658182  Si
            atom         3.86080303        0.00000000        7.51658182  Si
            atom         1.93040151        3.34355350        7.51658182  Si
            atom         5.79120454        3.34355350        7.51658182  Si
            atom         1.93040151        1.11451783        8.30466494  Si
            atom         5.79120454        1.11451783        8.30466494  Si
            atom         3.86080303        4.45807133        8.30466494  Si
            atom         7.72160605        4.45807133        8.30466494  Si
            atom         1.93039968        1.11436342       10.67672543  Si
            atom         5.79120549        1.11436324       10.67672504  Si
            atom         3.86080347        4.45791834       10.67672482  Si
            atom         7.72160512        4.45791870       10.67672277  Si
            atom        -0.00000071        2.22889083       11.47375633  Si
            atom         3.86080280        2.22888942       11.47375104  Si
            atom         1.93040202        5.57244269       11.47375723  Si
            atom         5.79120346        5.57244381       11.47375859  Si
            atom         0.00000037        2.22899486       13.84310673  Si
            atom         3.86080239        2.22899287       13.84309999  Si
            atom         1.93040338        5.57254534       13.84310753  Si
            atom         5.79120255        5.57254734       13.84310842  Si
            atom        -0.00000102       -0.00002588       14.61214185  Si
            atom         3.86080391       -0.00002781       14.61213793  Si
            atom         1.93040377        3.34352384       14.61214480  Si
            atom         5.79120204        3.34352434       14.61214342  Si
            atom         0.00000225        0.00007766       16.12186630  H
            atom         3.86080065        0.00007573       16.12186248  H
            atom         1.93040740        3.34361606       16.12187065  H
            atom         5.79119842        3.34362660       16.12186939  H

  Fractional coordinates:
                         L1                L2                L3
       atom_frac        -0.16665848        0.33331673        0.09218619  H
       atom_frac         0.33334086        0.33331850        0.09218617  H
       atom_frac        -0.16665831        0.83331905        0.09218618  H
       atom_frac         0.33333930        0.83331905        0.09218619  H
       atom_frac        -0.16666667        0.33333333        0.14090233  Si
       atom_frac         0.33333333        0.33333333        0.14090233  Si
       atom_frac        -0.16666667        0.83333333        0.14090233  Si
       atom_frac         0.33333333        0.83333333        0.14090233  Si
       atom_frac         0.00000000        0.00000000        0.16634605  Si
       atom_frac         0.50000000        0.00000000        0.16634605  Si
       atom_frac         0.00000000        0.50000000        0.16634605  Si
       atom_frac         0.50000000        0.50000000        0.16634605  Si
       atom_frac         0.00000000        0.00000000        0.24267721  Si
       atom_frac         0.50000000        0.00000000        0.24267721  Si
       atom_frac         0.00000000        0.50000000        0.24267721  Si
       atom_frac         0.50000000        0.50000000        0.24267721  Si
       atom_frac         0.16666667        0.16666667        0.26812093  Si
       atom_frac         0.66666667        0.16666667        0.26812093  Si
       atom_frac         0.16666667        0.66666667        0.26812093  Si
       atom_frac         0.66666667        0.66666667        0.26812093  Si
       atom_frac         0.16667798        0.16664358        0.34470428  Si
       atom_frac         0.66667835        0.16664355        0.34470427  Si
       atom_frac         0.16667816        0.66664379        0.34470426  Si
       atom_frac         0.66667796        0.66664384        0.34470420  Si
       atom_frac        -0.16665593        0.33331167        0.37043689  Si
       atom_frac         0.33334424        0.33331146        0.37043672  Si
       atom_frac        -0.16665565        0.83331143        0.37043692  Si
       atom_frac         0.33334406        0.83331160        0.37043696  Si
       atom_frac        -0.16666357        0.33332723        0.44693274  Si
       atom_frac         0.33333645        0.33332693        0.44693253  Si
       atom_frac        -0.16666315        0.83332678        0.44693277  Si
       atom_frac         0.33333620        0.83332708        0.44693280  Si
       atom_frac         0.00000180       -0.00000387        0.47176149  Si
       atom_frac         0.50000219       -0.00000416        0.47176136  Si
       atom_frac         0.00000251        0.49999556        0.47176158  Si
       atom_frac         0.50000186        0.49999564        0.47176154  Si
       atom_frac        -0.00000551        0.00001161        0.52050382  H
       atom_frac         0.49999403        0.00001132        0.52050370  H
       atom_frac        -0.00000392        0.50000936        0.52050396  H
       atom_frac         0.49999374        0.50001093        0.52050392  H
------------------------------------------------------------

------------------------------------------------------------------------------
  Final output of selected total energy values:

  The following output summarizes some interesting total energy values
  at the end of a run (AFTER all relaxation, molecular dynamics, etc.).

  | Total energy of the DFT / Hartree-Fock s.c.f. calculation      :        -252126.525200738 eV
  | Final zero-broadening corrected energy (caution - metals only) :        -252126.525200739 eV
  | For reference only, the value of 1 Hartree used in FHI-aims is :             27.211384500 eV

  Before relying on these values, please be sure to understand exactly which
  total energy value is referred to by a given number. Different objects may
  all carry the same name 'total energy'. Definitions:

  Total energy of the DFT / Hartree-Fock s.c.f. calculation:
  | Note that this energy does not include ANY quantities calculated after the
  | s.c.f. cycle, in particular not ANY RPA, MP2, etc. many-body perturbation terms.

  Final zero-broadening corrected energy:
  | For metallic systems only, a broadening of the occupation numbers at the Fermi
  | level can be extrapolated back to zero broadening by an electron-gas inspired
  | formula. For all systems that are not real metals, this value can be
  | meaningless and should be avoided.

------------------------------------------------------------------------------

------------------------------------------------------------
          Leaving FHI-aims.
          Date     :  20131111, Time     :  200354.741

          Computational steps:
          | Number of self-consistency cycles          :           95
          | Number of relaxation steps                 :            5

          Detailed time accounting                     :  max(cpu_time)    wall_clock(cpu1)
          | Total time                                 :     2749.968 s        2765.859 s
          | Preparation time                           :        0.212 s           0.210 s
          | Grid partitioning                          :        5.600 s           5.613 s
          | Preloading free-atom quantities on grid    :        7.184 s           7.207 s
          | Free-atom superposition energy             :        1.976 s           1.977 s
          | Total time for integrations                :      448.476 s         450.084 s
          | Total time for solution of K.-S. equations :      180.147 s         180.696 s
          | Total time for EV reorthonormalization     :        2.708 s           0.000 s
          | Total time for density & force components  :     1463.315 s        1468.347 s
          | Total time for mixing & preconditioning    :      192.572 s         193.517 s
          | Total time for Hartree multipole update    :        1.148 s           1.066 s
          | Total time for Hartree multipole sum       :      438.507 s         439.872 s
          | Total time for total energy evaluation     :        0.092 s           0.054 s

          Have a nice day.
------------------------------------------------------------
