   61
Geometry Step: 0
    H     11.58240908      8.90630932      2.86193171      1.05722067
    H      7.71850805      8.91793037      2.86125925      1.05489332
    H     15.44631011      8.91793037      2.86125925      1.05550998
    H      9.66052267      5.57750442      2.86193170      1.05487628
    H      5.79120454      5.56194977      2.86140756      1.05343646
    H     13.50429548      5.57750442      2.86193170      1.05702685
    H      7.71239285      2.23435394      2.86140755      1.05329780
    H      3.87001622      2.23435394      2.86140755      1.05372843
    H     11.58240908      2.22545752      2.86125925      1.05567249
   Si     11.58240908      8.91614266      4.36424935      3.91667784
   Si      7.72160605      8.91614266      4.36424935      3.89516289
   Si     15.44321210      8.91614266      4.36424935      3.89284913
   Si      9.65200756      5.57258916      4.36424935      3.90927707
   Si      5.79120454      5.57258916      4.36424935      3.90835381
   Si     13.51281059      5.57258916      4.36424935      3.91354846
   Si      7.72160605      2.22903567      4.36424935      3.90785749
   Si      3.86080303      2.22903567      4.36424935      3.90954114
   Si     11.58240908      2.22903567      4.36424935      3.89558018
   Si      9.65200756      7.80162483      5.15233247      4.02568032
   Si      5.79120454      7.80162483      5.15233247      4.03475477
   Si     13.51281059      7.80162483      5.15233247      4.02899845
   Si      7.72160605      4.45807133      5.15233247      4.02966859
   Si      3.86080303      4.45807133      5.15233247      4.02958741
   Si     11.58240908      4.45807133      5.15233247      4.02629010
   Si      5.79120454      1.11451783      5.15233247      4.02965193
   Si      1.93040151      1.11451783      5.15233247      4.03482181
   Si      9.65200756      1.11451783      5.15233247      4.03519970
   Si      9.80539060      7.95707705      7.56594528      4.00956368
   Si      5.89025600      7.96949090      7.53046536      3.96941367
   Si     13.53310896      7.90362268      7.55228011      4.01780051
   Si      7.89458045      4.61303038      7.43642827      4.00356254
   Si      3.85648783      4.60007437      7.43709788      4.00913952
   Si     11.70636615      4.62233135      7.56540605      4.01762116
   Si      5.85883605      1.14276014      7.43286889      4.00523914
   Si      1.97743510      1.23292808      7.62789630      3.96457541
   Si      9.79099335      1.22527837      7.56230561      3.96756622
   Si     11.67667134      6.82292462      8.58042413      3.97320211
   Si      7.86759257      6.84176939      8.29240106      4.00483157
   Si      3.94500404      6.83216301      8.24348386      4.00502144
   Si      9.78033324      3.52601436      8.36958375      4.00287404
   Si      5.86822319      3.45860605      7.80120777      3.94207601
   Si      2.04194853      3.52128862      8.46420070      4.00617486
   Si      7.81304452      0.15317991      8.28491139      4.00216238
   Si      3.97844250      0.17745254      8.43781000      4.00373971
   Si      0.07562807      0.10186190      8.56442922      4.17794415
   Si     12.13902460      6.89663223     10.94196325      3.93411952
   Si      8.61826281      6.71502561     10.60892935      3.95575409
   Si      3.79314724      6.64587748     10.61720658      3.95408174
   Si      9.86086895      4.53419320     10.61433425      3.96443657
   Si      6.20126422      4.02256165     10.03652262      4.03647278
   Si      2.59896322      4.39024434     10.70694963      3.96484676
   Si      7.41274202      0.57209695     10.59753015      3.98284507
   Si      4.88032310      0.60063133     10.67765966      3.98179593
   Si      9.94578837      8.60006485     11.85969459      4.05528983
   Si     14.12011927      8.60044919     11.74390432      4.05083854
   Si      6.22104339      6.12254800     11.21247077      4.03727494
   Si      8.04804455      2.94059720     11.15811917      4.02714444
   Si      4.48766441      2.95765436     11.36662280      4.01749179
   Si     12.02592005      4.74851039     11.91841466      4.10792746
   Si      6.32924738      4.03933500     12.58729041      3.99054284
   Si     12.04717590      8.15087668     12.89044544      3.93746622
