  577
Geometry Step: 0
    H     46.32306441     28.96834416      2.86202918      1.05349030
    H     42.46586392     28.98844432      2.86174205      1.05442777
    H     38.60723109     28.96828055      2.86220085      1.05278107
    H     34.74722734     28.98779949      2.86177004      1.05433091
    H     30.88722353     28.96828052      2.86220102      1.05278117
    H     27.02859066     28.98844442      2.86174203      1.05442791
    H     23.17138994     28.96834410      2.86202888      1.05349045
    H     19.30592611     28.97635941      2.86097466      1.05824926
    H     50.18852802     28.97635938      2.86097483      1.05824920
    H     44.40110468     25.63498879      2.86212524      1.05302422
    H     40.53499818     25.63537159      2.86222037      1.05267775
    H     36.68184264     25.63656832      2.86216598      1.05280572
    H     32.81261200     25.63656829      2.86216621      1.05280576
    H     28.95945646     25.63537162      2.86222076      1.05267784
    H     25.09334970     25.63498878      2.86212533      1.05302435
    H     21.24559947     25.63277716      2.86202858      1.05349042
    H     17.37361349     25.61185399      2.86142545      1.05452903
    H     48.24885482     25.63277719      2.86202871      1.05349033
    H     42.46838292     22.28665091      2.86221969      1.05267781
    H     38.60803460     22.29035829      2.86151383      1.05503787
    H     34.74722730     22.28634417      2.86225615      1.05259122
    H     30.88641994     22.29035821      2.86151458      1.05503784
    H     27.02607156     22.28665073      2.86222061      1.05267780
    H     23.15679253     22.28229330      2.86174158      1.05442782
    H     19.30734690     22.27624397      2.86249974      1.05206840
    H     15.43988018     22.27624403      2.86249959      1.05206841
    H     46.33766185     22.28229351      2.86174105      1.05442785
    H     40.54284157     18.94912189      2.86216470      1.05280584
    H     36.67415478     18.94880793      2.86225555      1.05259127
    H     32.82029980     18.94880792      2.86225614      1.05259121
    H     28.95161294     18.94912183      2.86216606      1.05280571
    H     25.10357134     18.95070109      2.86220058      1.05278109
    H     21.22986899     18.95168063      2.86253682      1.05167255
    H     17.37361358     18.94325054      2.86138670      1.05456207
    H     13.51735815     18.95168066      2.86253612      1.05167264
    H     44.39088307     18.95070120      2.86219931      1.05278122
    H     38.60822625     15.59826988      2.86216484      1.05280586
    H     34.74722719     15.60324379      2.86151394      1.05503788
    H     30.88622824     15.59826978      2.86216598      1.05280571
    H     27.01666939     15.59808038      2.86176980      1.05433083
    H     23.16805737     15.59537630      2.86251724      1.05176245
    H     19.30734679     15.60442201      2.86238294      1.05211254
    H     15.43988040     15.60442204      2.86238252      1.05211261
    H     11.57916984     15.59537637      2.86251612      1.05176264
    H     42.47778514     15.59808048      2.86176838      1.05433104
    H     36.68061205     12.26193771      2.86222000      1.05267786
    H     32.81384239     12.26193768      2.86222054      1.05267777
    H     28.96357507     12.26497847      2.86220082      1.05278106
    H     25.09002163     12.26643657      2.86251747      1.05176242
    H     21.23444075     12.25970913      2.86140350      1.05477123
    H     17.37361364     12.25658297      2.86234291      1.05213952
    H     13.51278656     12.25970920      2.86140299      1.05477136
    H      9.65720560     12.26643671      2.86251640      1.05176267
    H     40.53087932     12.26497860      2.86219971      1.05278127
    H     34.74722717      8.91398252      2.86212558      1.05302427
    H     30.87542924      8.91322262      2.86174218      1.05442776
    H     27.02757220      8.90976408      2.86253755      1.05167247
    H     23.16750012      8.91844038      2.86238357      1.05211244
    H     19.30131996      8.91769781      2.86234330      1.05213947
    H     15.44590737      8.91769783      2.86234316      1.05213957
    H     11.57972717      8.91844048      2.86238309      1.05211269
    H      7.71965499      8.90976418      2.86253681      1.05167273
    H     38.61902515      8.91322263      2.86174163      1.05442792
    H     32.82143669      5.58283899      2.86202938      1.05349034
    H     28.94546756      5.58252949      2.86250080      1.05206827
    H     25.09214384      5.57436407      2.86138774      1.05456194
    H     21.23376697      5.56911618      2.86238366      1.05211246
    H     17.37361371      5.57256054      2.86140386      1.05477127
    H     13.51346039      5.56911624      2.86238360      1.05211263
    H      9.65508346      5.57436414      2.86138760      1.05456213
    H      5.80175960      5.58252964      2.86250035      1.05206850
    H     36.67301754      5.58283907      2.86202920      1.05349039
    H     30.86732379      2.24006225      2.86142625      1.05452895
    H     27.01173424      2.23320509      2.86250076      1.05206828
    H     23.17131684      2.23053390      2.86253756      1.05167249
    H     19.29557798      2.23016572      2.86251767      1.05176249
    H     15.45164943      2.23016570      2.86251772      1.05176257
    H     11.57591044      2.23053391      2.86253753      1.05167269
    H      7.73549307      2.23320511      2.86250045      1.05206851
    H      3.87990329      2.24006230      2.86142595      1.05452910
    H     34.74722709      2.23124188      2.86097502      1.05824923
   Si     46.32963630     28.97746366      4.36424935      3.90865370
   Si     42.46883328     28.97746366      4.36424935      3.90931570
   Si     38.60803025     28.97746366      4.36424935      3.90806069
   Si     34.74722723     28.97746366      4.36424935      3.90915394
   Si     30.88642420     28.97746366      4.36424935      3.90806070
   Si     27.02562118     28.97746366      4.36424935      3.90931571
   Si     23.16481815     28.97746366      4.36424935      3.90865377
   Si     19.30401513     28.97746366      4.36424935      3.90216149
   Si     50.19043933     28.97746366      4.36424935      3.90216147
   Si     44.39923479     25.63391016      4.36424935      3.90807259
   Si     40.53843177     25.63391016      4.36424935      3.90823689
   Si     36.67762874     25.63391016      4.36424935      3.90838705
   Si     32.81682571     25.63391016      4.36424935      3.90838708
   Si     28.95602269     25.63391016      4.36424935      3.90823699
   Si     25.09521966     25.63391016      4.36424935      3.90807273
   Si     21.23441664     25.63391016      4.36424935      3.90865385
   Si     17.37361361     25.63391016      4.36424935      3.91525564
   Si     48.26003782     25.63391016      4.36424935      3.90865371
   Si     42.46883328     22.29035666      4.36424935      3.90823684
   Si     38.60803025     22.29035666      4.36424935      3.90870726
   Si     34.74722723     22.29035666      4.36424935      3.90809553
   Si     30.88642420     22.29035666      4.36424935      3.90870726
   Si     27.02562118     22.29035666      4.36424935      3.90823698
   Si     23.16481815     22.29035666      4.36424935      3.90931572
   Si     19.30401513     22.29035666      4.36424935      3.90841850
   Si     15.44321210     22.29035666      4.36424935      3.90841845
   Si     46.32963630     22.29035666      4.36424935      3.90931566
   Si     40.53843177     18.94680316      4.36424935      3.90838697
   Si     36.67762874     18.94680316      4.36424935      3.90809551
   Si     32.81682571     18.94680316      4.36424935      3.90809554
   Si     28.95602269     18.94680316      4.36424935      3.90838706
   Si     25.09521966     18.94680316      4.36424935      3.90806077
   Si     21.23441664     18.94680316      4.36424935      3.90900606
   Si     17.37361361     18.94680316      4.36424935      3.91005372
   Si     13.51281059     18.94680316      4.36424935      3.90900598
   Si     44.39923479     18.94680316      4.36424935      3.90806061
   Si     38.60803025     15.60324966      4.36424935      3.90838700
   Si     34.74722723     15.60324966      4.36424935      3.90870724
   Si     30.88642420     15.60324966      4.36424935      3.90838704
   Si     27.02562118     15.60324966      4.36424935      3.90915396
   Si     23.16481815     15.60324966      4.36424935      3.90898664
   Si     19.30401513     15.60324966      4.36424935      3.90788075
   Si     15.44321210     15.60324966      4.36424935      3.90788073
   Si     11.58240908     15.60324966      4.36424935      3.90898655
   Si     42.46883328     15.60324966      4.36424935      3.90915387
   Si     36.67762874     12.25969616      4.36424935      3.90823690
   Si     32.81682571     12.25969616      4.36424935      3.90823692
   Si     28.95602269     12.25969616      4.36424935      3.90806073
   Si     25.09521966     12.25969616      4.36424935      3.90898662
   Si     21.23441664     12.25969616      4.36424935      3.90880587
   Si     17.37361361     12.25969616      4.36424935      3.90882986
   Si     13.51281059     12.25969616      4.36424935      3.90880577
   Si      9.65200756     12.25969616      4.36424935      3.90898656
   Si     40.53843177     12.25969616      4.36424935      3.90806061
   Si     34.74722723      8.91614266      4.36424935      3.90807267
   Si     30.88642420      8.91614266      4.36424935      3.90931569
   Si     27.02562118      8.91614266      4.36424935      3.90900606
   Si     23.16481815      8.91614266      4.36424935      3.90788078
   Si     19.30401513      8.91614266      4.36424935      3.90882990
   Si     15.44321210      8.91614266      4.36424935      3.90882985
   Si     11.58240908      8.91614266      4.36424935      3.90788073
   Si      7.72160605      8.91614266      4.36424935      3.90900604
   Si     38.60803025      8.91614266      4.36424935      3.90931566
   Si     32.81682571      5.57258916      4.36424935      3.90865377
   Si     28.95602269      5.57258916      4.36424935      3.90841848
   Si     25.09521966      5.57258916      4.36424935      3.91005373
   Si     21.23441664      5.57258916      4.36424935      3.90788078
   Si     17.37361361      5.57258916      4.36424935      3.90880580
   Si     13.51281059      5.57258916      4.36424935      3.90788074
   Si      9.65200756      5.57258916      4.36424935      3.91005356
   Si      5.79120454      5.57258916      4.36424935      3.90841852
   Si     36.67762874      5.57258916      4.36424935      3.90865371
   Si     30.88642420      2.22903567      4.36424935      3.91525556
   Si     27.02562118      2.22903567      4.36424935      3.90841845
   Si     23.16481815      2.22903567      4.36424935      3.90900606
   Si     19.30401513      2.22903567      4.36424935      3.90898664
   Si     15.44321210      2.22903567      4.36424935      3.90898664
   Si     11.58240908      2.22903567      4.36424935      3.90900609
   Si      7.72160605      2.22903567      4.36424935      3.90841853
   Si      3.86080303      2.22903567      4.36424935      3.91525564
   Si     34.74722723      2.22903567      4.36424935      3.90216145
   Si     44.39923479     27.86294582      5.15233247      4.03621073
   Si     40.53843177     27.86294582      5.15233247      4.03728309
   Si     36.67762874     27.86294582      5.15233247      4.03721422
   Si     32.81682571     27.86294582      5.15233247      4.03721375
   Si     28.95602269     27.86294582      5.15233247      4.03728220
   Si     25.09521966     27.86294582      5.15233247      4.03620981
   Si     21.23441664     27.86294582      5.15233247      4.03767731
   Si     17.37361361     27.86294582      5.15233247      4.01893715
   Si     48.26003782     27.86294582      5.15233247      4.03767795
   Si     42.46883328     24.51939233      5.15233247      4.02386834
   Si     38.60803025     24.51939233      5.15233247      4.03584920
   Si     34.74722723     24.51939233      5.15233247      4.02402484
   Si     30.88642420     24.51939233      5.15233247      4.03584853
   Si     27.02562118     24.51939233      5.15233247      4.02386777
   Si     23.16481815     24.51939233      5.15233247      4.03620996
   Si     19.30401513     24.51939233      5.15233247      4.03775037
   Si     15.44321210     24.51939233      5.15233247      4.03775056
   Si     46.32963630     24.51939233      5.15233247      4.03621069
   Si     40.53843177     21.17583883      5.15233247      4.03584921
   Si     36.67762874     21.17583883      5.15233247      4.03665321
   Si     32.81682571     21.17583883      5.15233247      4.03665310
   Si     28.95602269     21.17583883      5.15233247      4.03584874
   Si     25.09521966     21.17583883      5.15233247      4.03728251
   Si     21.23441664     21.17583883      5.15233247      4.02087589
   Si     17.37361361     21.17583883      5.15233247      4.03684910
   Si     13.51281059     21.17583883      5.15233247      4.02087617
   Si     44.39923479     21.17583883      5.15233247      4.03728307
   Si     38.60803025     17.83228533      5.15233247      4.02402496
   Si     34.74722723     17.83228533      5.15233247      4.03665317
   Si     30.88642420     17.83228533      5.15233247      4.02402499
   Si     27.02562118     17.83228533      5.15233247      4.03721401
   Si     23.16481815     17.83228533      5.15233247      4.04088779
   Si     19.30401513     17.83228533      5.15233247      4.03719161
   Si     15.44321210     17.83228533      5.15233247      4.03719158
   Si     11.58240908     17.83228533      5.15233247      4.04088782
   Si     42.46883328     17.83228533      5.15233247      4.03721423
   Si     36.67762874     14.48873183      5.15233247      4.03584896
   Si     32.81682571     14.48873183      5.15233247      4.03584914
   Si     28.95602269     14.48873183      5.15233247      4.03721431
   Si     25.09521966     14.48873183      5.15233247      4.02124564
   Si     21.23441664     14.48873183      5.15233247      4.03756739
   Si     17.37361361     14.48873183      5.15233247      4.02081016
   Si     13.51281059     14.48873183      5.15233247      4.03756710
   Si      9.65200756     14.48873183      5.15233247      4.02124544
   Si     40.53843177     14.48873183      5.15233247      4.03721410
   Si     34.74722723     11.14517833      5.15233247      4.02386810
   Si     30.88642420     11.14517833      5.15233247      4.03728296
   Si     27.02562118     11.14517833      5.15233247      4.04088818
   Si     23.16481815     11.14517833      5.15233247      4.03756763
   Si     19.30401513     11.14517833      5.15233247      4.03779601
   Si     15.44321210     11.14517833      5.15233247      4.03779574
   Si     11.58240908     11.14517833      5.15233247      4.03756679
   Si      7.72160605     11.14517833      5.15233247      4.04088744
   Si     38.60803025     11.14517833      5.15233247      4.03728268
   Si     32.81682571      7.80162483      5.15233247      4.03621035
   Si     28.95602269      7.80162483      5.15233247      4.02087636
   Si     25.09521966      7.80162483      5.15233247      4.03719218
   Si     21.23441664      7.80162483      5.15233247      4.02081056
   Si     17.37361361      7.80162483      5.15233247      4.03779589
   Si     13.51281059      7.80162483      5.15233247      4.02080993
   Si      9.65200756      7.80162483      5.15233247      4.03719096
   Si      5.79120454      7.80162483      5.15233247      4.02087577
   Si     36.67762874      7.80162483      5.15233247      4.03621019
   Si     30.88642420      4.45807133      5.15233247      4.03775064
   Si     27.02562118      4.45807133      5.15233247      4.03684952
   Si     23.16481815      4.45807133      5.15233247      4.03719206
   Si     19.30401513      4.45807133      5.15233247      4.03756735
   Si     15.44321210      4.45807133      5.15233247      4.03756675
   Si     11.58240908      4.45807133      5.15233247      4.03719082
   Si      7.72160605      4.45807133      5.15233247      4.03684814
   Si      3.86080303      4.45807133      5.15233247      4.03774978
   Si     34.74722723      4.45807133      5.15233247      4.03767755
   Si     28.95602269      1.11451783      5.15233247      4.03775076
   Si     25.09521966      1.11451783      5.15233247      4.02087643
   Si     21.23441664      1.11451783      5.15233247      4.04088811
   Si     17.37361361      1.11451783      5.15233247      4.02124549
   Si     13.51281059      1.11451783      5.15233247      4.04088727
   Si      9.65200756      1.11451783      5.15233247      4.02087554
   Si      5.79120454      1.11451783      5.15233247      4.03774969
   Si      1.93040151      1.11451783      5.15233247      4.01893710
   Si     32.81682571      1.11451783      5.15233247      4.01893729
   Si     44.39923479     27.86294582      7.51658182      4.00887490
   Si     40.53843177     27.86294582      7.51658182      4.01215247
   Si     36.67762874     27.86294582      7.51658182      4.01183747
   Si     32.81682571     27.86294582      7.51658182      4.01183747
   Si     28.95602269     27.86294582      7.51658182      4.01215274
   Si     25.09521966     27.86294582      7.51658182      4.00887564
   Si     21.23441664     27.86294582      7.51658182      4.00464357
   Si     17.37361361     27.86294582      7.51658182      3.97688547
   Si     48.26003782     27.86294582      7.51658182      4.00464290
   Si     42.46883328     24.51939233      7.51658182      4.02014869
   Si     38.60803025     24.51939233      7.51658182      4.01237511
   Si     34.74722723     24.51939233      7.51658182      4.02156885
   Si     30.88642420     24.51939233      7.51658182      4.01237520
   Si     27.02562118     24.51939233      7.51658182      4.02014893
   Si     23.16481815     24.51939233      7.51658182      4.00887574
   Si     19.30401513     24.51939233      7.51658182      4.03334822
   Si     15.44321210     24.51939233      7.51658182      4.03334784
   Si     46.32963630     24.51939233      7.51658182      4.00887498
   Si     40.53843177     21.17583883      7.51658182      4.01237538
   Si     36.67762874     21.17583883      7.51658182      4.01528967
   Si     32.81682571     21.17583883      7.51658182      4.01528945
   Si     28.95602269     21.17583883      7.51658182      4.01237539
   Si     25.09521966     21.17583883      7.51658182      4.01215318
   Si     21.23441664     21.17583883      7.51658182      3.99092918
   Si     17.37361361     21.17583883      7.51658182      4.00881322
   Si     13.51281059     21.17583883      7.51658182      3.99092881
   Si     44.39923479     21.17583883      7.51658182      4.01215268
   Si     38.60803025     17.83228533      7.51658182      4.02156949
   Si     34.74722723     17.83228533      7.51658182      4.01528957
   Si     30.88642420     17.83228533      7.51658182      4.02156893
   Si     27.02562118     17.83228533      7.51658182      4.01183773
   Si     23.16481815     17.83228533      7.51658182      4.03048210
   Si     19.30401513     17.83228533      7.51658182      4.01162218
   Si     15.44321210     17.83228533      7.51658182      4.01162201
   Si     11.58240908     17.83228533      7.51658182      4.03048193
   Si     42.46883328     17.83228533      7.51658182      4.01183772
   Si     36.67762874     14.48873183      7.51658182      4.01237551
   Si     32.81682571     14.48873183      7.51658182      4.01237535
   Si     28.95602269     14.48873183      7.51658182      4.01183785
   Si     25.09521966     14.48873183      7.51658182      3.99216288
   Si     21.23441664     14.48873183      7.51658182      4.01079505
   Si     17.37361361     14.48873183      7.51658182      4.02686699
   Si     13.51281059     14.48873183      7.51658182      4.01079499
   Si      9.65200756     14.48873183      7.51658182      3.99216289
   Si     40.53843177     14.48873183      7.51658182      4.01183792
   Si     34.74722723     11.14517833      7.51658182      4.02014870
   Si     30.88642420     11.14517833      7.51658182      4.01215269
   Si     27.02562118     11.14517833      7.51658182      4.03048193
   Si     23.16481815     11.14517833      7.51658182      4.01079507
   Si     19.30401513     11.14517833      7.51658182      4.01357680
   Si     15.44321210     11.14517833      7.51658182      4.01357676
   Si     11.58240908     11.14517833      7.51658182      4.01079493
   Si      7.72160605     11.14517833      7.51658182      4.03048174
   Si     38.60803025     11.14517833      7.51658182      4.01215257
   Si     32.81682571      7.80162483      7.51658182      4.00887523
   Si     28.95602269      7.80162483      7.51658182      3.99092847
   Si     25.09521966      7.80162483      7.51658182      4.01162144
   Si     21.23441664      7.80162483      7.51658182      4.02686648
   Si     17.37361361      7.80162483      7.51658182      4.01357641
   Si     13.51281059      7.80162483      7.51658182      4.02686660
   Si      9.65200756      7.80162483      7.51658182      4.01162131
   Si      5.79120454      7.80162483      7.51658182      3.99092868
   Si     36.67762874      7.80162483      7.51658182      4.00887524
   Si     30.88642420      4.45807133      7.51658182      4.03334745
   Si     27.02562118      4.45807133      7.51658182      4.00881253
   Si     23.16481815      4.45807133      7.51658182      4.01162146
   Si     19.30401513      4.45807133      7.51658182      4.01079482
   Si     15.44321210      4.45807133      7.51658182      4.01079468
   Si     11.58240908      4.45807133      7.51658182      4.01162142
   Si      7.72160605      4.45807133      7.51658182      4.00881288
   Si      3.86080303      4.45807133      7.51658182      4.03334763
   Si     34.74722723      4.45807133      7.51658182      4.00464289
   Si     28.95602269      1.11451783      7.51658182      4.03334718
   Si     25.09521966      1.11451783      7.51658182      3.99092850
   Si     21.23441664      1.11451783      7.51658182      4.03048131
   Si     17.37361361      1.11451783      7.51658182      3.99216287
   Si     13.51281059      1.11451783      7.51658182      4.03048119
   Si      9.65200756      1.11451783      7.51658182      3.99092900
   Si      5.79120454      1.11451783      7.51658182      4.03334771
   Si      1.93040151      1.11451783      7.51658182      3.97688500
   Si     32.81682571      1.11451783      7.51658182      3.97688490
   Si     46.32904886     26.74809075      8.06966291      3.90333749
   Si     42.47200330     26.74990216      8.39501485      4.00651068
   Si     38.60805628     26.74719176      8.05042999      3.88493729
   Si     34.74722717     26.74946165      8.39253576      4.00578810
   Si     30.88639810     26.74719130      8.05043724      3.88493707
   Si     27.02245163     26.74990240      8.39502020      4.00651174
   Si     23.16540573     26.74809037      8.06967553      3.90333996
   Si     19.30600270     26.72788052      8.35027550      3.99763671
   Si     15.44122382     26.72788038      8.35027340      3.99763630
   Si     44.40209495     23.40688578      8.39501413      4.00651070
   Si     40.55176610     23.41257532      8.39627959      4.00822038
   Si     36.66743491     23.41325795      8.39573790      4.00812467
   Si     32.82701953     23.41325782      8.39573936      4.00812485
   Si     28.94268856     23.41257520      8.39628343      4.00822087
   Si     25.09235988     23.40688553      8.39501907      4.00651187
   Si     21.21687650     23.43616137      8.38048373      4.01900184
   Si     17.37361351     23.40718008      8.05400870      3.88646096
   Si     13.53035029     23.43616143      8.38048035      4.01900120
   Si     42.46777415     20.06196438      8.05043231      3.88493834
   Si     38.61019173     20.04830439      8.39573882      4.00812484
   Si     34.74722680     20.06132262      8.03103020      3.87198711
   Si     30.88426286     20.04830428      8.39573901      4.00812498
   Si     27.02668058     20.06196412      8.05043661      3.88493828
   Si     23.17872238     20.03671234      8.36864615      4.01495538
   Si     19.31584488     20.07083211      8.39425558      4.01232095
   Si     15.43138202     20.07083218      8.39425467      4.01232078
   Si     11.56850523     20.03671292      8.36864341      4.01495525
   Si     40.53932530     16.71725338      8.39253449      4.00578810
   Si     36.68998376     16.72240671      8.39573912      4.00812482
   Si     32.80447055     16.72240683      8.39573790      4.00812474
   Si     28.95512942     16.71725361      8.39253418      4.00578823
   Si     25.08011929     16.74444032      8.37039813      4.01567790
   Si     21.23545850     16.71838276      8.03996910      3.88076600
   Si     17.37361347     16.71684011      8.39421412      4.00639506
   Si     13.51176908     16.71838269      8.03996894      3.88076555
   Si      9.66710796     16.74444013      8.37039770      4.01567793
   Si     38.60694461     13.37481146      8.05043594      3.88493744
   Si     34.74722723     13.35881825      8.39628090      4.00822036
   Si     30.88750932     13.37481167      8.05043307      3.88493725
   Si     27.04116879     13.34780326      8.37039681      4.01567747
   Si     23.17875619     13.38226323      8.39182735      4.01178823
   Si     19.30091130     13.37789364      8.39365778      4.00706235
   Si     15.44631536     13.37789330      8.39365932      4.00706220
   Si     11.56847135     13.38226232      8.39182890      4.01178805
   Si      7.70605848     13.34780240      8.37039746      4.01567785
   Si     36.67731889     10.02718034      8.39501611      4.00651082
   Si     32.81713599     10.02718051      8.39501576      4.00651082
   Si     28.94166203     10.05500795      8.36864367      4.01495481
   Si     25.09627210     10.03125703      8.03996508      3.88076469
   Si     21.23604962     10.02613508      8.39365692      4.00706210
   Si     17.37361367     10.03066179      8.02442168      3.87293950
   Si     13.51117696     10.02613534      8.39365944      4.00706174
   Si      9.65095531     10.03125664      8.03997190      3.88076373
   Si      5.80556583     10.05500828      8.36864506      4.01495508
   Si     34.74722696      6.68778673      8.06967064      3.90333657
   Si     30.90474827      6.65627636      8.38048005      4.01900076
   Si     27.03977240      6.69259893      8.39425114      4.01231973
   Si     23.16401280      6.68757331      8.39420933      4.00639408
   Si     19.30875178      6.68795743      8.39365712      4.00706183
   Si     15.43847476      6.68795706      8.39365815      4.00706160
   Si     11.58321329      6.68757283      8.39421458      4.00639410
   Si      7.70745562      6.69259866      8.39425683      4.01232010
   Si      3.84247874      6.65627555      8.38048209      4.01900089
   Si     32.80002368      3.35555128      8.35027346      3.99763624
   Si     28.95801792      3.34240302      8.05400330      3.88645826
   Si     25.09754024      3.32855442      8.39425086      4.01231955
   Si     21.23442742      3.34234593      8.03996469      3.88076414
   Si     17.37361299      3.32746048      8.39182801      4.01178750
   Si     13.51279969      3.34234595      8.03997176      3.88076336
   Si      9.64968704      3.32855557      8.39425751      4.01232001
   Si      5.78920944      3.34240321      8.05401525      3.88645853
   Si      1.94720426      3.35555190      8.35027487      3.99763677
   Si     30.86763432      0.00855480      8.35027312      3.99763594
   Si     27.06148426     -0.00045099      8.38047944      4.01900054
   Si     23.13655357      0.00026545      8.36864281      4.01495469
   Si     19.33466292     -0.00025684      8.37039703      4.01567716
   Si     15.41256344     -0.00025649      8.37039821      4.01567743
   Si     11.61067496      0.00026579      8.36864706      4.01495492
   Si      7.68574197     -0.00045037      8.38048487      4.01900120
   Si      3.87959332      0.00855563      8.35027664      3.99763688
   Si      0.00000035      0.00000204      8.50337782      4.24423906
   Si     46.29411917     26.72792429     10.34301517      4.04786041
   Si     42.49416517     26.75324647     10.83675241      3.90854240
   Si     38.61801147     26.70359052     10.31464024      4.03969766
   Si     34.74722976     26.75785128     10.83177958      3.90916741
   Si     30.87644822     26.70359015     10.31464730      4.03969642
   Si     27.00029167     26.75324388     10.83676333      3.90854232
   Si     23.20033178     26.72792376     10.34302903      4.04786186
   Si     19.62758418     26.20423406     10.67768176      3.93535251
   Si     15.11963416     26.20423522     10.67767645      3.93535153
   Si     44.41606921     23.42440969     10.83675145      3.90854131
   Si     40.66318330     23.47690255     10.83814169      3.94397961
   Si     36.59156684     23.46597023     10.83765861      3.94167911
   Si     32.90289235     23.46596943     10.83766117      3.94167870
   Si     28.83127532     23.47690053     10.83814912      3.94397929
   Si     25.07838539     23.42440765     10.83676131      3.90854167
   Si     20.86365015     24.06736987     10.70167678      3.96776336
   Si     17.37361012     23.36646210     10.31825722      4.04247561
   Si     13.88357130     24.06737134     10.70167032      3.96776256
   Si     42.43499417     20.09238692     10.31464269      4.03969949
   Si     38.61790816     19.95624464     10.83765945      3.94168038
   Si     34.74722857     20.06132192     10.28596747      4.03228321
   Si     30.87654982     19.95624205     10.83766153      3.94167950
   Si     27.05946130     20.09238258     10.31464692      4.03969876