   61
Geometry Step: 0
    H     11.58240908      8.90630932      2.86193171      1.05499461
    H      7.71850805      8.91793037      2.86125925      1.05682679
    H     15.44631011      8.91793037      2.86125925      1.05695854
    H      9.66052267      5.57750442      2.86193170      1.05444612
    H      5.79120454      5.56194977      2.86140756      1.05350882
    H     13.50429548      5.57750442      2.86193170      1.05531061
    H      7.71239285      2.23435394      2.86140755      1.05377944
    H      3.87001622      2.23435394      2.86140755      1.05467446
    H     11.58240908      2.22545752      2.86125925      1.05752808
   Si     11.58240908      8.91614266      4.36424935      3.90700898
   Si      7.72160605      8.91614266      4.36424935      3.90136898
   Si     15.44321210      8.91614266      4.36424935      3.89445714
   Si      9.65200756      5.57258916      4.36424935      3.90662251
   Si      5.79120454      5.57258916      4.36424935      3.90726861
   Si     13.51281059      5.57258916      4.36424935      3.90707843
   Si      7.72160605      2.22903567      4.36424935      3.90802345
   Si      3.86080303      2.22903567      4.36424935      3.91305867
   Si     11.58240908      2.22903567      4.36424935      3.90277946
   Si      9.65200756      7.80162483      5.15233247      4.03306239
   Si      5.79120454      7.80162483      5.15233247      4.03141867
   Si     13.51281059      7.80162483      5.15233247      4.04189388
   Si      7.72160605      4.45807133      5.15233247      4.02312033
   Si      3.86080303      4.45807133      5.15233247      4.02437861
   Si     11.58240908      4.45807133      5.15233247      4.02692912
   Si      5.79120454      1.11451783      5.15233247      4.02761766
   Si      1.93040151      1.11451783      5.15233247      4.02870131
   Si      9.65200756      1.11451783      5.15233247      4.03109168
   Si      9.73277191      7.94128220      7.52069138      4.00669586
   Si      5.91254065      7.94698920      7.55234757      3.97576833
   Si     13.62831513      7.91917740      7.51754006      3.99984183
   Si      7.87455541      4.61396766      7.47277410      4.02400358
   Si      3.89745117      4.52451098      7.45498590      4.01648462
   Si     11.69367893      4.53524541      7.52411246      4.00540870
   Si      5.87135332      1.21323056      7.44464056      4.01466586
   Si      1.96806776      1.19898742      7.61707475      3.96713899
   Si      9.82148357      1.25150771      7.57137289      3.97323753
   Si     11.67451767      6.79646299      8.17925264      3.94893032
   Si      7.85546075      6.81009922      8.38450286      3.99830649
   Si      4.00129401      6.73791587      8.26091196      4.01975171
   Si      9.76668507      3.54236139      8.45249704      4.02572546
   Si      5.90052975      3.48014355      8.05905245      3.94163375
   Si      2.04242785      3.48627542      8.47250950      4.02143109
   Si      7.82596655      0.18926501      8.25821338      4.00600254
   Si      3.99551339      0.15564937      8.37470528      4.00816762
   Si      0.07777682      0.08448338      8.59497963      4.18255473
   Si     11.84595582      7.02443892     10.44132783      3.99573821
   Si      8.40705804      6.51726941     10.72129487      3.93247016
   Si      3.91273984      6.37850556     10.68498683      3.94288327
   Si      9.77793065      4.44522999     10.81929618      3.91965323
   Si      6.36833275      3.93723963     10.26356040      4.01613497
   Si      2.54894030      4.31947489     10.81047353      3.93700967
   Si      7.38928196      0.57891929     10.59141778      3.95248005
   Si      4.86693261      0.44593267     10.64099338      3.95073389
   Si     10.09343157      8.28763663     11.62354929      4.09605718
   Si     13.87137912      8.23756630     11.09240426      4.06406263
   Si      6.17879123      5.88622872     11.57571550      4.04283761
   Si      8.07429620      2.83453507     11.44765162      4.03606941
   Si      4.41813215      2.77434214     11.38892944      4.02851298
   Si     11.98695746      5.07001123     11.76898654      4.09982011
   Si      6.12322696      3.67308553     12.87402443      4.00043413
   Si     12.21267874      7.57821764     12.83200507      3.93544615
